+ 1.1214 33 83 exp 210 ------- 0 33.0 83.0 0 0 -5.10 5.10 9.90 -9.90
- 1.1214 33 83 exp 210 ------- 0 33.0 83.0 0 0 -5.10 5.10 9.90 -9.90
+ 1.1429 77 27 exp 210 ------- 0 77.1 27.1 0 1 8.10 -8.10 -6.90 6.90
- 1.1429 77 27 exp 210 ------- 0 77.1 27.1 0 1 8.10 -8.10 -6.90 6.90
+ 1.2363 90 40 exp 210 ------- 0 90.1 40.1 0 2 12.00 -12.00 -3.00 3.00
- 1.2363 90 40 exp 210 ------- 0 90.1 40.1 0 2 12.00 -12.00 -3.00 3.00
+ 1.2827 75 25 exp 210 ------- 0 75.1 25.1 0 3 7.50 -7.50 -7.50 7.50
- 1.2827 75 25 exp 210 ------- 0 75.1 25.1 0 3 7.50 -7.50 -7.50 7.50
+ 1.3098 72 22 exp 210 ------- 0 72.1 22.1 0 4 6.60 -6.60 -8.40 8.40
- 1.3098 72 22 exp 210 ------- 0 72.1 22.1 0 4 6.60 -6.60 -8.40 8.40
r 1.3620 33 83 exp 210 ------- 0 33.0 83.0 0 0 -5.10 5.10 9.90 -9.90
r 1.3834 77 27 exp 210 ------- 0 77.1 27.1 0 1 8.10 -8.10 -6.90 6.90
r 1.4770 90 40 exp 210 ------- 0 90.1 40.1 0 2 12.00 -12.00 -3.00 3.00
+ 1.4952 74 24 exp 210 ------- 0 74.1 24.1 0 5 7.20 -7.20 -7.80 7.80
- 1.4952 74 24 exp 210 ------- 0 74.1 24.1 0 5 7.20 -7.20 -7.80 7.80
+ 1.5110 38 88 exp 210 ------- 0 38.0 88.0 0 6 -3.60 3.60 11.40 -11.40
- 1.5110 38 88 exp 210 ------- 0 38.0 88.0 0 6 -3.60 3.60 11.40 -11.40
+ 1.5188 73 23 exp 210 ------- 0 73.1 23.1 0 7 6.90 -6.90 -8.10 8.10
- 1.5188 73 23 exp 210 ------- 0 73.1 23.1 0 7 6.90 -6.90 -8.10 8.10
r 1.5232 75 25 exp 210 ------- 0 75.1 25.1 0 3 7.50 -7.50 -7.50 7.50
+ 1.5446 62 12 exp 210 ------- 0 62.1 12.1 0 8 3.60 -3.60 -11.40 11.40
- 1.5446 62 12 exp 210 ------- 0 62.1 12.1 0 8 3.60 -3.60 -11.40 11.40
r 1.5503 72 22 exp 210 ------- 0 72.1 22.1 0 4 6.60 -6.60 -8.40 8.40
+ 1.5751 21 71 exp 210 ------- 0 21.0 71.0 0 9 -8.70 8.70 6.30 -6.30
- 1.5751 21 71 exp 210 ------- 0 21.0 71.0 0 9 -8.70 8.70 6.30 -6.30
+ 1.5751 38 88 exp 210 ------- 0 38.0 88.0 1 10 -3.60 3.60 11.40 -11.40
+ 1.5971 20 70 exp 210 ------- 0 20.0 70.0 0 11 -9.00 9.00 6.00 -6.00
- 1.5971 20 70 exp 210 ------- 0 20.0 70.0 0 11 -9.00 9.00 6.00 -6.00
+ 1.6336 78 28 exp 210 ------- 0 78.1 28.1 0 12 8.40 -8.40 -6.60 6.60
- 1.6336 78 28 exp 210 ------- 0 78.1 28.1 0 12 8.40 -8.40 -6.60 6.60
+ 1.6392 51 1 exp 210 ------- 0 51.1 1.1 0 13 0.30 -0.30 -14.70 14.70
- 1.6392 51 1 exp 210 ------- 0 51.1 1.1 0 13 0.30 -0.30 -14.70 14.70
+ 1.6697 39 89 exp 210 ------- 0 39.0 89.0 0 14 -3.30 3.30 11.70 -11.70
- 1.6697 39 89 exp 210 ------- 0 39.0 89.0 0 14 -3.30 3.30 11.70 -11.70
+ 1.7245 35 85 exp 210 ------- 0 35.0 85.0 0 15 -4.50 4.50 10.50 -10.50
- 1.7245 35 85 exp 210 ------- 0 35.0 85.0 0 15 -4.50 4.50 10.50 -10.50
r 1.7357 74 24 exp 210 ------- 0 74.1 24.1 0 5 7.20 -7.20 -7.80 7.80
+ 1.7421 14 64 exp 210 ------- 0 14.0 64.0 0 16 -10.80 10.80 4.20 -4.20
- 1.7421 14 64 exp 210 ------- 0 14.0 64.0 0 16 -10.80 10.80 4.20 -4.20
- 1.7508 38 88 exp 210 ------- 0 38.0 88.0 1 10 -3.60 3.60 11.40 -11.40
r 1.7517 38 88 exp 210 ------- 0 38.0 88.0 0 6 -3.60 3.60 11.40 -11.40
r 1.7593 73 23 exp 210 ------- 0 73.1 23.1 0 7 6.90 -6.90 -8.10 8.10
+ 1.7694 96 46 exp 210 ------- 0 96.1 46.1 0 17 13.80 -13.80 -1.20 1.20
- 1.7694 96 46 exp 210 ------- 0 96.1 46.1 0 17 13.80 -13.80 -1.20 1.20
r 1.7853 62 12 exp 210 ------- 0 62.1 12.1 0 8 3.60 -3.60 -11.40 11.40
+ 1.8061 16 66 exp 210 ------- 0 16.0 66.0 0 18 -10.20 10.20 4.80 -4.80
- 1.8061 16 66 exp 210 ------- 0 16.0 66.0 0 18 -10.20 10.20 4.80 -4.80
+ 1.8080 63 13 exp 210 ------- 0 63.1 13.1 0 19 3.90 -3.90 -11.10 11.10
- 1.8080 63 13 exp 210 ------- 0 63.1 13.1 0 19 3.90 -3.90 -11.10 11.10
r 1.8156 21 71 exp 210 ------- 0 21.0 71.0 0 9 -8.70 8.70 6.30 -6.30
r 1.8376 20 70 exp 210 ------- 0 20.0 70.0 0 11 -9.00 9.00 6.00 -6.00
+ 1.8459 72 22 exp 210 ------- 0 72.1 22.1 1 20 6.60 -6.60 -8.40 8.40
- 1.8459 72 22 exp 210 ------- 0 72.1 22.1 1 20 6.60 -6.60 -8.40 8.40
r 1.8741 78 28 exp 210 ------- 0 78.1 28.1 0 12 8.40 -8.40 -6.60 6.60
r 1.8804 51 1 exp 210 ------- 0 51.1 1.1 0 13 0.30 -0.30 -14.70 14.70
+ 1.8937 6 56 exp 210 ------- 0 6.0 56.0 0 21 -13.20 13.20 1.80 -1.80
- 1.8937 6 56 exp 210 ------- 0 6.0 56.0 0 21 -13.20 13.20 1.80 -1.80
r 1.9104 39 89 exp 210 ------- 0 39.0 89.0 0 14 -3.30 3.30 11.70 -11.70
+ 1.9302 68 18 exp 210 ------- 0 68.1 18.1 0 22 5.40 -5.40 -9.60 9.60
- 1.9302 68 18 exp 210 ------- 0 68.1 18.1 0 22 5.40 -5.40 -9.60 9.60
+ 1.9314 92 42 exp 210 ------- 0 92.1 42.1 0 23 12.60 -12.60 -2.40 2.40
- 1.9314 92 42 exp 210 ------- 0 92.1 42.1 0 23 12.60 -12.60 -2.40 2.40
+ 1.9505 95 45 exp 210 ------- 0 95.1 45.1 0 24 13.50 -13.50 -1.50 1.50
- 1.9505 95 45 exp 210 ------- 0 95.1 45.1 0 24 13.50 -13.50 -1.50 1.50
r 1.9651 35 85 exp 210 ------- 0 35.0 85.0 0 15 -4.50 4.50 10.50 -10.50
r 1.9828 14 64 exp 210 ------- 0 14.0 64.0 0 16 -10.80 10.80 4.20 -4.20
r 1.9916 38 88 exp 210 ------- 0 38.0 88.0 1 10 -3.60 3.60 11.40 -11.40
r 2.0105 96 46 exp 210 ------- 0 96.1 46.1 0 17 13.80 -13.80 -1.20 1.20
+ 2.0138 4 54 exp 210 ------- 0 4.0 54.0 0 25 -13.80 13.80 1.20 -1.20
- 2.0138 4 54 exp 210 ------- 0 4.0 54.0 0 25 -13.80 13.80 1.20 -1.20
+ 2.0193 42 92 exp 210 ------- 0 42.0 92.0 0 26 -2.40 2.40 12.60 -12.60
- 2.0193 42 92 exp 210 ------- 0 42.0 92.0 0 26 -2.40 2.40 12.60 -12.60
r 2.0467 16 66 exp 210 ------- 0 16.0 66.0 0 18 -10.20 10.20 4.80 -4.80
r 2.0487 63 13 exp 210 ------- 0 63.1 13.1 0 19 3.90 -3.90 -11.10 11.10
r 2.0864 72 22 exp 210 ------- 0 72.1 22.1 1 20 6.60 -6.60 -8.40 8.40
+ 2.1210 3 53 exp 210 ------- 0 3.0 53.0 0 27 -14.10 14.10 0.90 -0.90
- 2.1210 3 53 exp 210 ------- 0 3.0 53.0 0 27 -14.10 14.10 0.90 -0.90
r 2.1347 6 56 exp 210 ------- 0 6.0 56.0 0 21 -13.20 13.20 1.80 -1.80
+ 2.1557 97 47 exp 210 ------- 0 97.1 47.1 0 28 14.10 -14.10 -0.90 0.90
- 2.1557 97 47 exp 210 ------- 0 97.1 47.1 0 28 14.10 -14.10 -0.90 0.90
r 2.1708 68 18 exp 210 ------- 0 68.1 18.1 0 22 5.40 -5.40 -9.60 9.60
r 2.1722 92 42 exp 210 ------- 0 92.1 42.1 0 23 12.60 -12.60 -2.40 2.40
+ 2.1810 54 4 exp 210 ------- 0 54.1 4.1 0 29 1.20 -1.20 -13.80 13.80
- 2.1810 54 4 exp 210 ------- 0 54.1 4.1 0 29 1.20 -1.20 -13.80 13.80
r 2.1915 95 45 exp 210 ------- 0 95.1 45.1 0 24 13.50 -13.50 -1.50 1.50
+ 2.2104 30 80 exp 210 ------- 0 30.0 80.0 0 30 -6.00 6.00 9.00 -9.00
- 2.2104 30 80 exp 210 ------- 0 30.0 80.0 0 30 -6.00 6.00 9.00 -9.00
r 2.2549 4 54 exp 210 ------- 0 4.0 54.0 0 25 -13.80 13.80 1.20 -1.20
r 2.2601 42 92 exp 210 ------- 0 42.0 92.0 0 26 -2.40 2.40 12.60 -12.60
+ 2.2894 31 81 exp 210 ------- 0 31.0 81.0 0 31 -5.70 5.70 9.30 -9.30
- 2.2894 31 81 exp 210 ------- 0 31.0 81.0 0 31 -5.70 5.70 9.30 -9.30
+ 2.3575 17 67 exp 210 ------- 0 17.0 67.0 0 32 -9.90 9.90 5.10 -5.10
- 2.3575 17 67 exp 210 ------- 0 17.0 67.0 0 32 -9.90 9.90 5.10 -5.10
r 2.3621 3 53 exp 210 ------- 0 3.0 53.0 0 27 -14.10 14.10 0.90 -0.90
r 2.3968 97 47 exp 210 ------- 0 97.1 47.1 0 28 14.10 -14.10 -0.90 0.90
+ 2.4036 53 3 exp 210 ------- 0 53.1 3.1 0 33 0.90 -0.90 -14.10 14.10
- 2.4036 53 3 exp 210 ------- 0 53.1 3.1 0 33 0.90 -0.90 -14.10 14.10
r 2.4220 54 4 exp 210 ------- 0 54.1 4.1 0 29 1.20 -1.20 -13.80 13.80
+ 2.4405 80 30 exp 210 ------- 0 80.1 30.1 0 34 9.00 -9.00 -6.00 6.00
- 2.4405 80 30 exp 210 ------- 0 80.1 30.1 0 34 9.00 -9.00 -6.00 6.00
r 2.4510 30 80 exp 210 ------- 0 30.0 80.0 0 30 -6.00 6.00 9.00 -9.00
r 2.5299 31 81 exp 210 ------- 0 31.0 81.0 0 31 -5.70 5.70 9.30 -9.30
+ 2.5308 42 92 exp 210 ------- 0 42.0 92.0 1 35 -2.40 2.40 12.60 -12.60
- 2.5308 42 92 exp 210 ------- 0 42.0 92.0 1 35 -2.40 2.40 12.60 -12.60
+ 2.5337 40 90 exp 210 ------- 0 40.0 90.0 0 36 -3.00 3.00 12.00 -12.00
- 2.5337 40 90 exp 210 ------- 0 40.0 90.0 0 36 -3.00 3.00 12.00 -12.00
+ 2.5350 61 11 exp 210 ------- 0 61.1 11.1 0 37 3.30 -3.30 -11.70 11.70
- 2.5350 61 11 exp 210 ------- 0 61.1 11.1 0 37 3.30 -3.30 -11.70 11.70
+ 2.5388 36 86 exp 210 ------- 0 36.0 86.0 0 38 -4.20 4.20 10.80 -10.80
- 2.5388 36 86 exp 210 ------- 0 36.0 86.0 0 38 -4.20 4.20 10.80 -10.80
r 2.5981 17 67 exp 210 ------- 0 17.0 67.0 0 32 -9.90 9.90 5.10 -5.10
r 2.6448 53 3 exp 210 ------- 0 53.1 3.1 0 33 0.90 -0.90 -14.10 14.10
r 2.6810 80 30 exp 210 ------- 0 80.1 30.1 0 34 9.00 -9.00 -6.00 6.00
+ 2.7241 91 41 exp 210 ------- 0 91.1 41.1 0 39 12.30 -12.30 -2.70 2.70
- 2.7241 91 41 exp 210 ------- 0 91.1 41.1 0 39 12.30 -12.30 -2.70 2.70
+ 2.7392 67 17 exp 210 ------- 0 67.1 17.1 0 40 5.10 -5.10 -9.90 9.90
- 2.7392 67 17 exp 210 ------- 0 67.1 17.1 0 40 5.10 -5.10 -9.90 9.90
+ 2.7641 4 54 exp 210 ------- 0 4.0 54.0 1 41 -13.80 13.80 1.20 -1.20
- 2.7641 4 54 exp 210 ------- 0 4.0 54.0 1 41 -13.80 13.80 1.20 -1.20
r 2.7717 42 92 exp 210 ------- 0 42.0 92.0 1 35 -2.40 2.40 12.60 -12.60
r 2.7745 40 90 exp 210 ------- 0 40.0 90.0 0 36 -3.00 3.00 12.00 -12.00
r 2.7757 61 11 exp 210 ------- 0 61.1 11.1 0 37 3.30 -3.30 -11.70 11.70
r 2.7795 36 86 exp 210 ------- 0 36.0 86.0 0 38 -4.20 4.20 10.80 -10.80
+ 2.8143 47 97 exp 210 ------- 0 47.0 97.0 0 42 -0.90 0.90 14.10 -14.10
- 2.8143 47 97 exp 210 ------- 0 47.0 97.0 0 42 -0.90 0.90 14.10 -14.10
+ 2.8197 32 82 exp 210 ------- 0 32.0 82.0 0 43 -5.40 5.40 9.60 -9.60
- 2.8197 32 82 exp 210 ------- 0 32.0 82.0 0 43 -5.40 5.40 9.60 -9.60
+ 2.8751 33 83 exp 210 ------- 0 33.0 83.0 1 44 -5.10 5.10 9.90 -9.90
- 2.8751 33 83 exp 210 ------- 0 33.0 83.0 1 44 -5.10 5.10 9.90 -9.90
+ 2.9624 81 31 exp 210 ------- 0 81.1 31.1 0 45 9.30 -9.30 -5.70 5.70
- 2.9624 81 31 exp 210 ------- 0 81.1 31.1 0 45 9.30 -9.30 -5.70 5.70
r 2.9649 91 41 exp 210 ------- 0 91.1 41.1 0 39 12.30 -12.30 -2.70 2.70
r 2.9798 67 17 exp 210 ------- 0 67.1 17.1 0 40 5.10 -5.10 -9.90 9.90
+ 3.0041 14 64 exp 210 ------- 0 14.0 64.0 1 46 -10.80 10.80 4.20 -4.20
- 3.0041 14 64 exp 210 ------- 0 14.0 64.0 1 46 -10.80 10.80 4.20 -4.20
r 3.0051 4 54 exp 210 ------- 0 4.0 54.0 1 41 -13.80 13.80 1.20 -1.20
+ 3.0509 43 93 exp 210 ------- 0 43.0 93.0 0 47 -2.10 2.10 12.90 -12.90
- 3.0509 43 93 exp 210 ------- 0 43.0 93.0 0 47 -2.10 2.10 12.90 -12.90
r 3.0554 47 97 exp 210 ------- 0 47.0 97.0 0 42 -0.90 0.90 14.10 -14.10
r 3.0602 32 82 exp 210 ------- 0 32.0 82.0 0 43 -5.40 5.40 9.60 -9.60
+ 3.1122 84 34 exp 210 ------- 0 84.1 34.1 0 48 10.20 -10.20 -4.80 4.80
- 3.1122 84 34 exp 210 ------- 0 84.1 34.1 0 48 10.20 -10.20 -4.80 4.80
r 3.1157 33 83 exp 210 ------- 0 33.0 83.0 1 44 -5.10 5.10 9.90 -9.90
r 3.2030 81 31 exp 210 ------- 0 81.1 31.1 0 45 9.30 -9.30 -5.70 5.70
+ 3.2403 5 55 exp 210 ------- 0 5.0 55.0 0 49 -13.50 13.50 1.50 -1.50
- 3.2403 5 55 exp 210 ------- 0 5.0 55.0 0 49 -13.50 13.50 1.50 -1.50
r 3.2447 14 64 exp 210 ------- 0 14.0 64.0 1 46 -10.80 10.80 4.20 -4.20
+ 3.2543 70 20 exp 210 ------- 0 70.1 20.1 0 50 6.00 -6.00 -9.00 9.00
- 3.2543 70 20 exp 210 ------- 0 70.1 20.1 0 50 6.00 -6.00 -9.00 9.00
r 3.2919 43 93 exp 210 ------- 0 43.0 93.0 0 47 -2.10 2.10 12.90 -12.90
+ 3.3238 70 20 exp 210 ------- 0 70.1 20.1 1 51 6.00 -6.00 -9.00 9.00
+ 3.3406 36 86 exp 210 ------- 0 36.0 86.0 1 52 -4.20 4.20 10.80 -10.80
- 3.3406 36 86 exp 210 ------- 0 36.0 86.0 1 52 -4.20 4.20 10.80 -10.80
r 3.3528 84 34 exp 210 ------- 0 84.1 34.1 0 48 10.20 -10.20 -4.80 4.80
+ 3.4274 42 92 exp 210 ------- 0 42.0 92.0 2 53 -2.40 2.40 12.60 -12.60
- 3.4274 42 92 exp 210 ------- 0 42.0 92.0 2 53 -2.40 2.40 12.60 -12.60
+ 3.4534 43 93 exp 210 ------- 0 43.0 93.0 1 54 -2.10 2.10 12.90 -12.90
- 3.4534 43 93 exp 210 ------- 0 43.0 93.0 1 54 -2.10 2.10 12.90 -12.90
r 3.4813 5 55 exp 210 ------- 0 5.0 55.0 0 49 -13.50 13.50 1.50 -1.50
- 3.4945 70 20 exp 210 ------- 0 70.1 20.1 1 51 6.00 -6.00 -9.00 9.00
r 3.4948 70 20 exp 210 ------- 0 70.1 20.1 0 50 6.00 -6.00 -9.00 9.00
r 3.5812 36 86 exp 210 ------- 0 36.0 86.0 1 52 -4.20 4.20 10.80 -10.80
+ 3.5816 16 66 exp 210 ------- 0 16.0 66.0 1 55 -10.20 10.20 4.80 -4.80
- 3.5816 16 66 exp 210 ------- 0 16.0 66.0 1 55 -10.20 10.20 4.80 -4.80
+ 3.5957 23 73 exp 210 ------- 0 23.0 73.0 0 56 -8.10 8.10 6.90 -6.90
- 3.5957 23 73 exp 210 ------- 0 23.0 73.0 0 56 -8.10 8.10 6.90 -6.90
r 3.6682 42 92 exp 210 ------- 0 42.0 92.0 2 53 -2.40 2.40 12.60 -12.60
r 3.6943 43 93 exp 210 ------- 0 43.0 93.0 1 54 -2.10 2.10 12.90 -12.90
+ 3.7216 94 44 exp 210 ------- 0 94.1 44.1 0 57 13.20 -13.20 -1.80 1.80
- 3.7216 94 44 exp 210 ------- 0 94.1 44.1 0 57 13.20 -13.20 -1.80 1.80
r 3.7350 70 20 exp 210 ------- 0 70.1 20.1 1 51 6.00 -6.00 -9.00 9.00
r 3.8222 16 66 exp 210 ------- 0 16.0 66.0 1 55 -10.20 10.20 4.80 -4.80
r 3.8362 23 73 exp 210 ------- 0 23.0 73.0 0 56 -8.10 8.10 6.90 -6.90
+ 3.9308 78 28 exp 210 ------- 0 78.1 28.1 1 58 8.40 -8.40 -6.60 6.60
- 3.9308 78 28 exp 210 ------- 0 78.1 28.1 1 58 8.40 -8.40 -6.60 6.60
+ 3.9354 42 92 exp 210 ------- 0 42.0 92.0 3 59 -2.40 2.40 12.60 -12.60
- 3.9354 42 92 exp 210 ------- 0 42.0 92.0 3 59 -2.40 2.40 12.60 -12.60
+ 3.9360 1 51 exp 210 ------- 0 1.0 51.0 0 60 -14.70 14.70 0.30 -0.30
- 3.9360 1 51 exp 210 ------- 0 1.0 51.0 0 60 -14.70 14.70 0.30 -0.30
r 3.9626 94 44 exp 210 ------- 0 94.1 44.1 0 57 13.20 -13.20 -1.80 1.80
+ 4.0365 26 76 exp 210 ------- 0 26.0 76.0 0 61 -7.20 7.20 7.80 -7.80
- 4.0365 26 76 exp 210 ------- 0 26.0 76.0 0 61 -7.20 7.20 7.80 -7.80
+ 4.0489 93 43 exp 210 ------- 0 93.1 43.1 0 62 12.90 -12.90 -2.10 2.10
- 4.0489 93 43 exp 210 ------- 0 93.1 43.1 0 62 12.90 -12.90 -2.10 2.10
+ 4.1241 76 26 exp 210 ------- 0 76.1 26.1 0 63 7.80 -7.80 -7.20 7.20
- 4.1241 76 26 exp 210 ------- 0 76.1 26.1 0 63 7.80 -7.80 -7.20 7.20
+ 4.1681 43 93 exp 210 ------- 0 43.0 93.0 2 64 -2.10 2.10 12.90 -12.90
- 4.1681 43 93 exp 210 ------- 0 43.0 93.0 2 64 -2.10 2.10 12.90 -12.90
r 4.1713 78 28 exp 210 ------- 0 78.1 28.1 1 58 8.40 -8.40 -6.60 6.60
r 4.1763 42 92 exp 210 ------- 0 42.0 92.0 3 59 -2.40 2.40 12.60 -12.60
r 4.1773 1 51 exp 210 ------- 0 1.0 51.0 0 60 -14.70 14.70 0.30 -0.30
r 4.2770 26 76 exp 210 ------- 0 26.0 76.0 0 61 -7.20 7.20 7.80 -7.80
r 4.2898 93 43 exp 210 ------- 0 93.1 43.1 0 62 12.90 -12.90 -2.10 2.10
r 4.3646 76 26 exp 210 ------- 0 76.1 26.1 0 63 7.80 -7.80 -7.20 7.20
+ 4.3849 43 93 exp 210 ------- 0 43.0 93.0 3 65 -2.10 2.10 12.90 -12.90
- 4.4079 43 93 exp 210 ------- 0 43.0 93.0 3 65 -2.10 2.10 12.90 -12.90
r 4.4091 43 93 exp 210 ------- 0 43.0 93.0 2 64 -2.10 2.10 12.90 -12.90
+ 4.4572 70 20 exp 210 ------- 0 70.1 20.1 2 66 6.00 -6.00 -9.00 9.00
- 4.4572 70 20 exp 210 ------- 0 70.1 20.1 2 66 6.00 -6.00 -9.00 9.00
+ 4.5492 34 84 exp 210 ------- 0 34.0 84.0 0 67 -4.80 4.80 10.20 -10.20
- 4.5492 34 84 exp 210 ------- 0 34.0 84.0 0 67 -4.80 4.80 10.20 -10.20
+ 4.5639 72 22 exp 210 ------- 0 72.1 22.1 2 68 6.60 -6.60 -8.40 8.40
- 4.5639 72 22 exp 210 ------- 0 72.1 22.1 2 68 6.60 -6.60 -8.40 8.40
r 4.6488 43 93 exp 210 ------- 0 43.0 93.0 3 65 -2.10 2.10 12.90 -12.90
+ 4.6876 5 55 exp 210 ------- 0 5.0 55.0 1 69 -13.50 13.50 1.50 -1.50
- 4.6876 5 55 exp 210 ------- 0 5.0 55.0 1 69 -13.50 13.50 1.50 -1.50
r 4.6977 70 20 exp 210 ------- 0 70.1 20.1 2 66 6.00 -6.00 -9.00 9.00
+ 4.6986 99 49 exp 210 ------- 0 99.1 49.1 0 70 14.70 -14.70 -0.30 0.30
- 4.6986 99 49 exp 210 ------- 0 99.1 49.1 0 70 14.70 -14.70 -0.30 0.30
+ 4.7358 77 27 exp 210 ------- 0 77.1 27.1 1 71 8.10 -8.10 -6.90 6.90
- 4.7358 77 27 exp 210 ------- 0 77.1 27.1 1 71 8.10 -8.10 -6.90 6.90
r 4.7898 34 84 exp 210 ------- 0 34.0 84.0 0 67 -4.80 4.80 10.20 -10.20
r 4.8044 72 22 exp 210 ------- 0 72.1 22.1 2 68 6.60 -6.60 -8.40 8.40
+ 4.8166 13 63 exp 210 ------- 0 13.0 63.0 0 72 -11.10 11.10 3.90 -3.90
- 4.8166 13 63 exp 210 ------- 0 13.0 63.0 0 72 -11.10 11.10 3.90 -3.90
+ 4.8173 96 46 exp 210 ------- 0 96.1 46.1 1 73 13.80 -13.80 -1.20 1.20
- 4.8173 96 46 exp 210 ------- 0 96.1 46.1 1 73 13.80 -13.80 -1.20 1.20
r 4.9286 5 55 exp 210 ------- 0 5.0 55.0 1 69 -13.50 13.50 1.50 -1.50
+ 4.9288 42 92 exp 210 ------- 0 42.0 92.0 4 74 -2.40 2.40 12.60 -12.60
- 4.9288 42 92 exp 210 ------- 0 42.0 92.0 4 74 -2.40 2.40 12.60 -12.60
+ 4.9338 73 23 exp 210 ------- 0 73.1 23.1 1 75 6.90 -6.90 -8.10 8.10
- 4.9338 73 23 exp 210 ------- 0 73.1 23.1 1 75 6.90 -6.90 -8.10 8.10
r 4.9399 99 49 exp 210 ------- 0 99.1 49.1 0 70 14.70 -14.70 -0.30 0.30
+ 4.9465 31 81 exp 210 ------- 0 31.0 81.0 1 76 -5.70 5.70 9.30 -9.30
- 4.9465 31 81 exp 210 ------- 0 31.0 81.0 1 76 -5.70 5.70 9.30 -9.30
+ 4.9495 73 23 exp 210 ------- 0 73.1 23.1 2 77 6.90 -6.90 -8.10 8.10
r 4.9763 77 27 exp 210 ------- 0 77.1 27.1 1 71 8.10 -8.10 -6.90 6.90
+ 4.9785 55 5 exp 210 ------- 0 55.1 5.1 0 78 1.50 -1.50 -13.50 13.50
- 4.9785 55 5 exp 210 ------- 0 55.1 5.1 0 78 1.50 -1.50 -13.50 13.50
+ 5.0252 78 28 exp 210 ------- 0 78.1 28.1 2 79 8.40 -8.40 -6.60 6.60
- 5.0252 78 28 exp 210 ------- 0 78.1 28.1 2 79 8.40 -8.40 -6.60 6.60
r 5.0573 13 63 exp 210 ------- 0 13.0 63.0 0 72 -11.10 11.10 3.90 -3.90
r 5.0584 96 46 exp 210 ------- 0 96.1 46.1 1 73 13.80 -13.80 -1.20 1.20
+ 5.0766 63 13 exp 210 ------- 0 63.1 13.1 1 80 3.90 -3.90 -11.10 11.10
- 5.0766 63 13 exp 210 ------- 0 63.1 13.1 1 80 3.90 -3.90 -11.10 11.10
+ 5.0846 61 11 exp 210 ------- 0 61.1 11.1 1 81 3.30 -3.30 -11.70 11.70
- 5.0846 61 11 exp 210 ------- 0 61.1 11.1 1 81 3.30 -3.30 -11.70 11.70
+ 5.1266 17 67 exp 210 ------- 0 17.0 67.0 1 82 -9.90 9.90 5.10 -5.10
- 5.1266 17 67 exp 210 ------- 0 17.0 67.0 1 82 -9.90 9.90 5.10 -5.10
+ 5.1366 57 7 exp 210 ------- 0 57.1 7.1 0 83 2.10 -2.10 -12.90 12.90
- 5.1366 57 7 exp 210 ------- 0 57.1 7.1 0 83 2.10 -2.10 -12.90 12.90
r 5.1697 42 92 exp 210 ------- 0 42.0 92.0 4 74 -2.40 2.40 12.60 -12.60
- 5.1741 73 23 exp 210 ------- 0 73.1 23.1 2 77 6.90 -6.90 -8.10 8.10
r 5.1743 73 23 exp 210 ------- 0 73.1 23.1 1 75 6.90 -6.90 -8.10 8.10
r 5.1870 31 81 exp 210 ------- 0 31.0 81.0 1 76 -5.70 5.70 9.30 -9.30
+ 5.1905 74 24 exp 210 ------- 0 74.1 24.1 1 84 7.20 -7.20 -7.80 7.80
- 5.1905 74 24 exp 210 ------- 0 74.1 24.1 1 84 7.20 -7.20 -7.80 7.80
r 5.2196 55 5 exp 210 ------- 0 55.1 5.1 0 78 1.50 -1.50 -13.50 13.50
r 5.2657 78 28 exp 210 ------- 0 78.1 28.1 2 79 8.40 -8.40 -6.60 6.60
+ 5.2703 28 78 exp 210 ------- 0 28.0 78.0 0 85 -6.60 6.60 8.40 -8.40
- 5.2703 28 78 exp 210 ------- 0 28.0 78.0 0 85 -6.60 6.60 8.40 -8.40
+ 5.2942 9 59 exp 210 ------- 0 9.0 59.0 0 86 -12.30 12.30 2.70 -2.70
- 5.2942 9 59 exp 210 ------- 0 9.0 59.0 0 86 -12.30 12.30 2.70 -2.70
+ 5.3027 60 10 exp 210 ------- 0 60.1 10.1 0 87 3.00 -3.00 -12.00 12.00
- 5.3027 60 10 exp 210 ------- 0 60.1 10.1 0 87 3.00 -3.00 -12.00 12.00
r 5.3173 63 13 exp 210 ------- 0 63.1 13.1 1 80 3.90 -3.90 -11.10 11.10
r 5.3253 61 11 exp 210 ------- 0 61.1 11.1 1 81 3.30 -3.30 -11.70 11.70
+ 5.3352 28 78 exp 210 ------- 0 28.0 78.0 1 88 -6.60 6.60 8.40 -8.40
+ 5.3642 43 93 exp 210 ------- 0 43.0 93.0 4 89 -2.10 2.10 12.90 -12.90
- 5.3642 43 93 exp 210 ------- 0 43.0 93.0 4 89 -2.10 2.10 12.90 -12.90
r 5.3672 17 67 exp 210 ------- 0 17.0 67.0 1 82 -9.90 9.90 5.10 -5.10
r 5.3775 57 7 exp 210 ------- 0 57.1 7.1 0 83 2.10 -2.10 -12.90 12.90
+ 5.3865 95 45 exp 210 ------- 0 95.1 45.1 1 90 13.50 -13.50 -1.50 1.50
- 5.3865 95 45 exp 210 ------- 0 95.1 45.1 1 90 13.50 -13.50 -1.50 1.50
r 5.4146 73 23 exp 210 ------- 0 73.1 23.1 2 77 6.90 -6.90 -8.10 8.10
r 5.4310 74 24 exp 210 ------- 0 74.1 24.1 1 84 7.20 -7.20 -7.80 7.80
+ 5.4740 12 62 exp 210 ------- 0 12.0 62.0 0 91 -11.40 11.40 3.60 -3.60
- 5.4740 12 62 exp 210 ------- 0 12.0 62.0 0 91 -11.40 11.40 3.60 -3.60
+ 5.4783 3 53 exp 210 ------- 0 3.0 53.0 1 92 -14.10 14.10 0.90 -0.90
- 5.4783 3 53 exp 210 ------- 0 3.0 53.0 1 92 -14.10 14.10 0.90 -0.90
+ 5.5024 44 94 exp 210 ------- 0 44.0 94.0 0 93 -1.80 1.80 13.20 -13.20
- 5.5024 44 94 exp 210 ------- 0 44.0 94.0 0 93 -1.80 1.80 13.20 -13.20
- 5.5106 28 78 exp 210 ------- 0 28.0 78.0 1 88 -6.60 6.60 8.40 -8.40
r 5.5108 28 78 exp 210 ------- 0 28.0 78.0 0 85 -6.60 6.60 8.40 -8.40
+ 5.5129 18 68 exp 210 ------- 0 18.0 68.0 0 94 -9.60 9.60 5.40 -5.40
- 5.5129 18 68 exp 210 ------- 0 18.0 68.0 0 94 -9.60 9.60 5.40 -5.40
+ 5.5291 19 69 exp 210 ------- 0 19.0 69.0 0 95 -9.30 9.30 5.70 -5.70
- 5.5291 19 69 exp 210 ------- 0 19.0 69.0 0 95 -9.30 9.30 5.70 -5.70
r 5.5350 9 59 exp 210 ------- 0 9.0 59.0 0 86 -12.30 12.30 2.70 -2.70
r 5.5435 60 10 exp 210 ------- 0 60.1 10.1 0 87 3.00 -3.00 -12.00 12.00
r 5.6052 43 93 exp 210 ------- 0 43.0 93.0 4 89 -2.10 2.10 12.90 -12.90
r 5.6276 95 45 exp 210 ------- 0 95.1 45.1 1 90 13.50 -13.50 -1.50 1.50
+ 5.6744 92 42 exp 210 ------- 0 92.1 42.1 1 96 12.60 -12.60 -2.40 2.40
- 5.6744 92 42 exp 210 ------- 0 92.1 42.1 1 96 12.60 -12.60 -2.40 2.40
r 5.7148 12 62 exp 210 ------- 0 12.0 62.0 0 91 -11.40 11.40 3.60 -3.60
r 5.7194 3 53 exp 210 ------- 0 3.0 53.0 1 92 -14.10 14.10 0.90 -0.90
+ 5.7354 28 78 exp 210 ------- 0 28.0 78.0 2 97 -6.60 6.60 8.40 -8.40
r 5.7433 44 94 exp 210 ------- 0 44.0 94.0 0 93 -1.80 1.80 13.20 -13.20
- 5.7509 28 78 exp 210 ------- 0 28.0 78.0 2 97 -6.60 6.60 8.40 -8.40
r 5.7511 28 78 exp 210 ------- 0 28.0 78.0 1 88 -6.60 6.60 8.40 -8.40
r 5.7535 18 68 exp 210 ------- 0 18.0 68.0 0 94 -9.60 9.60 5.40 -5.40
+ 5.7683 14 64 exp 210 ------- 0 14.0 64.0 2 98 -10.80 10.80 4.20 -4.20
- 5.7683 14 64 exp 210 ------- 0 14.0 64.0 2 98 -10.80 10.80 4.20 -4.20
r 5.7697 19 69 exp 210 ------- 0 19.0 69.0 0 95 -9.30 9.30 5.70 -5.70
+ 5.8559 83 33 exp 210 ------- 0 83.1 33.1 0 99 9.90 -9.90 -5.10 5.10
- 5.8559 83 33 exp 210 ------- 0 83.1 33.1 0 99 9.90 -9.90 -5.10 5.10
r 5.9153 92 42 exp 210 ------- 0 92.1 42.1 1 96 12.60 -12.60 -2.40 2.40
+ 5.9228 45 95 exp 210 ------- 0 45.0 95.0 0 100 -1.50 1.50 13.50 -13.50
- 5.9228 45 95 exp 210 ------- 0 45.0 95.0 0 100 -1.50 1.50 13.50 -13.50
+ 5.9700 73 23 exp 210 ------- 0 73.1 23.1 3 101 6.90 -6.90 -8.10 8.10
- 5.9700 73 23 exp 210 ------- 0 73.1 23.1 3 101 6.90 -6.90 -8.10 8.10
+ 5.9768 63 13 exp 210 ------- 0 63.1 13.1 2 102 3.90 -3.90 -11.10 11.10
- 5.9768 63 13 exp 210 ------- 0 63.1 13.1 2 102 3.90 -3.90 -11.10 11.10
+ 5.9816 80 30 exp 210 ------- 0 80.1 30.1 1 103 9.00 -9.00 -6.00 6.00
- 5.9816 80 30 exp 210 ------- 0 80.1 30.1 1 103 9.00 -9.00 -6.00 6.00
r 5.9914 28 78 exp 210 ------- 0 28.0 78.0 2 97 -6.60 6.60 8.40 -8.40
r 6.0089 14 64 exp 210 ------- 0 14.0 64.0 2 98 -10.80 10.80 4.20 -4.20
r 6.0965 83 33 exp 210 ------- 0 83.1 33.1 0 99 9.90 -9.90 -5.10 5.10
+ 6.1633 41 91 exp 210 ------- 0 41.0 91.0 0 104 -2.70 2.70 12.30 -12.30
- 6.1633 41 91 exp 210 ------- 0 41.0 91.0 0 104 -2.70 2.70 12.30 -12.30
r 6.1638 45 95 exp 210 ------- 0 45.0 95.0 0 100 -1.50 1.50 13.50 -13.50
+ 6.1710 97 47 exp 210 ------- 0 97.1 47.1 1 105 14.10 -14.10 -0.90 0.90
- 6.1710 97 47 exp 210 ------- 0 97.1 47.1 1 105 14.10 -14.10 -0.90 0.90
+ 6.1831 40 90 exp 210 ------- 0 40.0 90.0 1 106 -3.00 3.00 12.00 -12.00
- 6.1831 40 90 exp 210 ------- 0 40.0 90.0 1 106 -3.00 3.00 12.00 -12.00
r 6.2105 73 23 exp 210 ------- 0 73.1 23.1 3 101 6.90 -6.90 -8.10 8.10
r 6.2175 63 13 exp 210 ------- 0 63.1 13.1 2 102 3.90 -3.90 -11.10 11.10
r 6.2221 80 30 exp 210 ------- 0 80.1 30.1 1 103 9.00 -9.00 -6.00 6.00
+ 6.2356 62 12 exp 210 ------- 0 62.1 12.1 1 107 3.60 -3.60 -11.40 11.40
- 6.2356 62 12 exp 210 ------- 0 62.1 12.1 1 107 3.60 -3.60 -11.40 11.40
+ 6.2671 11 61 exp 210 ------- 0 11.0 61.0 0 108 -11.70 11.70 3.30 -3.30
- 6.2671 11 61 exp 210 ------- 0 11.0 61.0 0 108 -11.70 11.70 3.30 -3.30
+ 6.3946 69 19 exp 210 ------- 0 69.1 19.1 0 109 5.70 -5.70 -9.30 9.30
- 6.3946 69 19 exp 210 ------- 0 69.1 19.1 0 109 5.70 -5.70 -9.30 9.30
+ 6.3976 23 73 exp 210 ------- 0 23.0 73.0 1 110 -8.10 8.10 6.90 -6.90
- 6.3976 23 73 exp 210 ------- 0 23.0 73.0 1 110 -8.10 8.10 6.90 -6.90
r 6.4041 41 91 exp 210 ------- 0 41.0 91.0 0 104 -2.70 2.70 12.30 -12.30
r 6.4121 97 47 exp 210 ------- 0 97.1 47.1 1 105 14.10 -14.10 -0.90 0.90
r 6.4239 40 90 exp 210 ------- 0 40.0 90.0 1 106 -3.00 3.00 12.00 -12.00
+ 6.4606 9 59 exp 210 ------- 0 9.0 59.0 1 111 -12.30 12.30 2.70 -2.70
- 6.4606 9 59 exp 210 ------- 0 9.0 59.0 1 111 -12.30 12.30 2.70 -2.70
+ 6.4611 13 63 exp 210 ------- 0 13.0 63.0 1 112 -11.10 11.10 3.90 -3.90
- 6.4611 13 63 exp 210 ------- 0 13.0 63.0 1 112 -11.10 11.10 3.90 -3.90
r 6.4763 62 12 exp 210 ------- 0 62.1 12.1 1 107 3.60 -3.60 -11.40 11.40
+ 6.4962 33 83 exp 210 ------- 0 33.0 83.0 2 113 -5.10 5.10 9.90 -9.90
- 6.4962 33 83 exp 210 ------- 0 33.0 83.0 2 113 -5.10 5.10 9.90 -9.90
r 6.5079 11 61 exp 210 ------- 0 11.0 61.0 0 108 -11.70 11.70 3.30 -3.30
+ 6.5477 4 54 exp 210 ------- 0 4.0 54.0 2 114 -13.80 13.80 1.20 -1.20
- 6.5477 4 54 exp 210 ------- 0 4.0 54.0 2 114 -13.80 13.80 1.20 -1.20
+ 6.5841 29 79 exp 210 ------- 0 29.0 79.0 0 115 -6.30 6.30 8.70 -8.70
- 6.5841 29 79 exp 210 ------- 0 29.0 79.0 0 115 -6.30 6.30 8.70 -8.70
+ 6.5889 77 27 exp 210 ------- 0 77.1 27.1 2 116 8.10 -8.10 -6.90 6.90
- 6.5889 77 27 exp 210 ------- 0 77.1 27.1 2 116 8.10 -8.10 -6.90 6.90
+ 6.6256 35 85 exp 210 ------- 0 35.0 85.0 1 117 -4.50 4.50 10.50 -10.50
- 6.6256 35 85 exp 210 ------- 0 35.0 85.0 1 117 -4.50 4.50 10.50 -10.50
r 6.6352 69 19 exp 210 ------- 0 69.1 19.1 0 109 5.70 -5.70 -9.30 9.30
r 6.6381 23 73 exp 210 ------- 0 23.0 73.0 1 110 -8.10 8.10 6.90 -6.90
+ 6.6701 50 100 exp 210 ------- 0 50.0 100.0 0 118 0.00 0.00 15.00 -15.00
- 6.6701 50 100 exp 210 ------- 0 50.0 100.0 0 118 0.00 0.00 15.00 -15.00
c 6.7008 9 59 exp 210 ------- 0 9.0 59.0 1 111 -12.30 12.30 2.70 -2.70
c 6.7009 13 63 exp 210 ------- 0 13.0 63.0 1 112 -11.10 11.10 3.90 -3.90
+ 6.7306 73 23 exp 210 ------- 0 73.1 23.1 4 119 6.90 -6.90 -8.10 8.10
- 6.7306 73 23 exp 210 ------- 0 73.1 23.1 4 119 6.90 -6.90 -8.10 8.10
r 6.7368 33 83 exp 210 ------- 0 33.0 83.0 2 113 -5.10 5.10 9.90 -9.90
+ 6.7494 21 71 exp 210 ------- 0 21.0 71.0 1 120 -8.70 8.70 6.30 -6.30
- 6.7494 21 71 exp 210 ------- 0 21.0 71.0 1 120 -8.70 8.70 6.30 -6.30
r 6.7887 4 54 exp 210 ------- 0 4.0 54.0 2 114 -13.80 13.80 1.20 -1.20
+ 6.8221 36 86 exp 210 ------- 0 36.0 86.0 2 121 -4.20 4.20 10.80 -10.80
- 6.8221 36 86 exp 210 ------- 0 36.0 86.0 2 121 -4.20 4.20 10.80 -10.80
r 6.8246 29 79 exp 210 ------- 0 29.0 79.0 0 115 -6.30 6.30 8.70 -8.70
r 6.8294 77 27 exp 210 ------- 0 77.1 27.1 2 116 8.10 -8.10 -6.90 6.90
r 6.8662 35 85 exp 210 ------- 0 35.0 85.0 1 117 -4.50 4.50 10.50 -10.50
+ 6.8724 23 73 exp 210 ------- 0 23.0 73.0 2 122 -8.10 8.10 6.90 -6.90
- 6.8724 23 73 exp 210 ------- 0 23.0 73.0 2 122 -8.10 8.10 6.90 -6.90
+ 6.8960 21 71 exp 210 ------- 0 21.0 71.0 2 123 -8.70 8.70 6.30 -6.30
r 6.9114 50 100 exp 210 ------- 0 50.0 100.0 0 118 0.00 0.00 15.00 -15.00
+ 6.9213 9 59 exp 210 ------- 0 9.0 59.0 2 124 -12.30 12.30 2.70 -2.70
+ 6.9374 49 99 exp 210 ------- 0 49.0 99.0 0 125 -0.30 0.30 14.70 -14.70
- 6.9374 49 99 exp 210 ------- 0 49.0 99.0 0 125 -0.30 0.30 14.70 -14.70
r 6.9711 73 23 exp 210 ------- 0 73.1 23.1 4 119 6.90 -6.90 -8.10 8.10
r 6.9900 21 71 exp 210 ------- 0 21.0 71.0 1 120 -8.70 8.70 6.30 -6.30
- 6.9902 21 71 exp 210 ------- 0 21.0 71.0 2 123 -8.70 8.70 6.30 -6.30
+ 7.0279 33 83 exp 210 ------- 0 33.0 83.0 3 126 -5.10 5.10 9.90 -9.90
- 7.0279 33 83 exp 210 ------- 0 33.0 83.0 3 126 -5.10 5.10 9.90 -9.90
+ 7.0347 81 31 exp 210 ------- 0 81.1 31.1 1 127 9.30 -9.30 -5.70 5.70
- 7.0347 81 31 exp 210 ------- 0 81.1 31.1 1 127 9.30 -9.30 -5.70 5.70
r 7.0628 36 86 exp 210 ------- 0 36.0 86.0 2 121 -4.20 4.20 10.80 -10.80
r 7.0792 9 59 exp 210 ------- 0 9.0 59.0 1 111 -12.30 12.30 2.70 -2.70
- 7.0803 9 59 exp 210 ------- 0 9.0 59.0 2 124 -12.30 12.30 2.70 -2.70
r 7.1129 23 73 exp 210 ------- 0 23.0 73.0 2 122 -8.10 8.10 6.90 -6.90
+ 7.1387 26 76 exp 210 ------- 0 26.0 76.0 1 128 -7.20 7.20 7.80 -7.80
- 7.1387 26 76 exp 210 ------- 0 26.0 76.0 1 128 -7.20 7.20 7.80 -7.80
r 7.1786 49 99 exp 210 ------- 0 49.0 99.0 0 125 -0.30 0.30 14.70 -14.70
+ 7.1895 4 54 exp 210 ------- 0 4.0 54.0 3 129 -13.80 13.80 1.20 -1.20
- 7.1895 4 54 exp 210 ------- 0 4.0 54.0 3 129 -13.80 13.80 1.20 -1.20
+ 7.2134 63 13 exp 210 ------- 0 63.1 13.1 3 130 3.90 -3.90 -11.10 11.10
- 7.2134 63 13 exp 210 ------- 0 63.1 13.1 3 130 3.90 -3.90 -11.10 11.10
r 7.2307 21 71 exp 210 ------- 0 21.0 71.0 2 123 -8.70 8.70 6.30 -6.30
r 7.2685 33 83 exp 210 ------- 0 33.0 83.0 3 126 -5.10 5.10 9.90 -9.90
r 7.2752 81 31 exp 210 ------- 0 81.1 31.1 1 127 9.30 -9.30 -5.70 5.70
r 7.3212 9 59 exp 210 ------- 0 9.0 59.0 2 124 -12.30 12.30 2.70 -2.70
+ 7.3572 85 35 exp 210 ------- 0 85.1 35.1 0 131 10.50 -10.50 -4.50 4.50
- 7.3572 85 35 exp 210 ------- 0 85.1 35.1 0 131 10.50 -10.50 -4.50 4.50
+ 7.3699 1 51 exp 210 ------- 0 1.0 51.0 1 132 -14.70 14.70 0.30 -0.30
- 7.3699 1 51 exp 210 ------- 0 1.0 51.0 1 132 -14.70 14.70 0.30 -0.30
r 7.3792 26 76 exp 210 ------- 0 26.0 76.0 1 128 -7.20 7.20 7.80 -7.80
+ 7.4073 62 12 exp 210 ------- 0 62.1 12.1 2 133 3.60 -3.60 -11.40 11.40
- 7.4073 62 12 exp 210 ------- 0 62.1 12.1 2 133 3.60 -3.60 -11.40 11.40
r 7.4305 4 54 exp 210 ------- 0 4.0 54.0 3 129 -13.80 13.80 1.20 -1.20
r 7.4541 63 13 exp 210 ------- 0 63.1 13.1 3 130 3.90 -3.90 -11.10 11.10
+ 7.4825 70 20 exp 210 ------- 0 70.1 20.1 3 134 6.00 -6.00 -9.00 9.00
- 7.4825 70 20 exp 210 ------- 0 70.1 20.1 3 134 6.00 -6.00 -9.00 9.00
+ 7.5512 100 50 exp 210 ------- 0 100.1 50.1 0 135 15.00 -15.00 0.00 0.00
- 7.5512 100 50 exp 210 ------- 0 100.1 50.1 0 135 15.00 -15.00 0.00 0.00
+ 7.5778 84 34 exp 210 ------- 0 84.1 34.1 1 136 10.20 -10.20 -4.80 4.80
- 7.5778 84 34 exp 210 ------- 0 84.1 34.1 1 136 10.20 -10.20 -4.80 4.80
+ 7.5940 30 80 exp 210 ------- 0 30.0 80.0 1 137 -6.00 6.00 9.00 -9.00
- 7.5940 30 80 exp 210 ------- 0 30.0 80.0 1 137 -6.00 6.00 9.00 -9.00
r 7.5978 85 35 exp 210 ------- 0 85.1 35.1 0 131 10.50 -10.50 -4.50 4.50
+ 7.6005 39 89 exp 210 ------- 0 39.0 89.0 1 138 -3.30 3.30 11.70 -11.70
- 7.6005 39 89 exp 210 ------- 0 39.0 89.0 1 138 -3.30 3.30 11.70 -11.70
r 7.6111 1 51 exp 210 ------- 0 1.0 51.0 1 132 -14.70 14.70 0.30 -0.30
+ 7.6390 26 76 exp 210 ------- 0 26.0 76.0 2 139 -7.20 7.20 7.80 -7.80
- 7.6390 26 76 exp 210 ------- 0 26.0 76.0 2 139 -7.20 7.20 7.80 -7.80
r 7.6480 62 12 exp 210 ------- 0 62.1 12.1 2 133 3.60 -3.60 -11.40 11.40
+ 7.6807 79 29 exp 210 ------- 0 79.1 29.1 0 140 8.70 -8.70 -6.30 6.30
- 7.6807 79 29 exp 210 ------- 0 79.1 29.1 0 140 8.70 -8.70 -6.30 6.30
+ 7.7004 27 77 exp 210 ------- 0 27.0 77.0 0 141 -6.90 6.90 8.10 -8.10
- 7.7004 27 77 exp 210 ------- 0 27.0 77.0 0 141 -6.90 6.90 8.10 -8.10
+ 7.7030 42 92 exp 210 ------- 0 42.0 92.0 5 142 -2.40 2.40 12.60 -12.60
- 7.7030 42 92 exp 210 ------- 0 42.0 92.0 5 142 -2.40 2.40 12.60 -12.60