+ 2.6921 33 83 exp 210 ------- 0 33.0 83.0 0 0 -5.10 5.10 9.90 -9.90
- 2.6921 33 83 exp 210 ------- 0 33.0 83.0 0 0 -5.10 5.10 9.90 -9.90
+ 2.6943 77 27 exp 210 ------- 0 77.1 27.1 0 1 8.10 -8.10 -6.90 6.90
- 2.6943 77 27 exp 210 ------- 0 77.1 27.1 0 1 8.10 -8.10 -6.90 6.90
+ 2.7036 90 40 exp 210 ------- 0 90.1 40.1 0 2 12.00 -12.00 -3.00 3.00
- 2.7036 90 40 exp 210 ------- 0 90.1 40.1 0 2 12.00 -12.00 -3.00 3.00
+ 2.7083 75 25 exp 210 ------- 0 75.1 25.1 0 3 7.50 -7.50 -7.50 7.50
- 2.7083 75 25 exp 210 ------- 0 75.1 25.1 0 3 7.50 -7.50 -7.50 7.50
+ 2.7110 72 22 exp 210 ------- 0 72.1 22.1 0 4 6.60 -6.60 -8.40 8.40
- 2.7110 72 22 exp 210 ------- 0 72.1 22.1 0 4 6.60 -6.60 -8.40 8.40
+ 2.7295 74 24 exp 210 ------- 0 74.1 24.1 0 5 7.20 -7.20 -7.80 7.80
- 2.7295 74 24 exp 210 ------- 0 74.1 24.1 0 5 7.20 -7.20 -7.80 7.80
+ 2.7311 38 88 exp 210 ------- 0 38.0 88.0 0 6 -3.60 3.60 11.40 -11.40
- 2.7311 38 88 exp 210 ------- 0 38.0 88.0 0 6 -3.60 3.60 11.40 -11.40
+ 2.7319 73 23 exp 210 ------- 0 73.1 23.1 0 7 6.90 -6.90 -8.10 8.10
- 2.7319 73 23 exp 210 ------- 0 73.1 23.1 0 7 6.90 -6.90 -8.10 8.10
+ 2.7345 62 12 exp 210 ------- 0 62.1 12.1 0 8 3.60 -3.60 -11.40 11.40
- 2.7345 62 12 exp 210 ------- 0 62.1 12.1 0 8 3.60 -3.60 -11.40 11.40
+ 2.7375 21 71 exp 210 ------- 0 21.0 71.0 0 9 -8.70 8.70 6.30 -6.30
- 2.7375 21 71 exp 210 ------- 0 21.0 71.0 0 9 -8.70 8.70 6.30 -6.30
+ 2.7397 20 70 exp 210 ------- 0 20.0 70.0 0 10 -9.00 9.00 6.00 -6.00
- 2.7397 20 70 exp 210 ------- 0 20.0 70.0 0 10 -9.00 9.00 6.00 -6.00
+ 2.7434 78 28 exp 210 ------- 0 78.1 28.1 0 11 8.40 -8.40 -6.60 6.60
- 2.7434 78 28 exp 210 ------- 0 78.1 28.1 0 11 8.40 -8.40 -6.60 6.60
+ 2.7439 51 1 exp 210 ------- 0 51.1 1.1 0 12 0.30 -0.30 -14.70 14.70
- 2.7439 51 1 exp 210 ------- 0 51.1 1.1 0 12 0.30 -0.30 -14.70 14.70
+ 2.7470 39 89 exp 210 ------- 0 39.0 89.0 0 13 -3.30 3.30 11.70 -11.70
- 2.7470 39 89 exp 210 ------- 0 39.0 89.0 0 13 -3.30 3.30 11.70 -11.70
+ 2.7525 35 85 exp 210 ------- 0 35.0 85.0 0 14 -4.50 4.50 10.50 -10.50
- 2.7525 35 85 exp 210 ------- 0 35.0 85.0 0 14 -4.50 4.50 10.50 -10.50
+ 2.7542 14 64 exp 210 ------- 0 14.0 64.0 0 15 -10.80 10.80 4.20 -4.20
- 2.7542 14 64 exp 210 ------- 0 14.0 64.0 0 15 -10.80 10.80 4.20 -4.20
+ 2.7569 96 46 exp 210 ------- 0 96.1 46.1 0 16 13.80 -13.80 -1.20 1.20
- 2.7569 96 46 exp 210 ------- 0 96.1 46.1 0 16 13.80 -13.80 -1.20 1.20
+ 2.7606 16 66 exp 210 ------- 0 16.0 66.0 0 17 -10.20 10.20 4.80 -4.80
- 2.7606 16 66 exp 210 ------- 0 16.0 66.0 0 17 -10.20 10.20 4.80 -4.80
+ 2.7608 63 13 exp 210 ------- 0 63.1 13.1 0 18 3.90 -3.90 -11.10 11.10
- 2.7608 63 13 exp 210 ------- 0 63.1 13.1 0 18 3.90 -3.90 -11.10 11.10
+ 2.7694 6 56 exp 210 ------- 0 6.0 56.0 0 19 -13.20 13.20 1.80 -1.80
- 2.7694 6 56 exp 210 ------- 0 6.0 56.0 0 19 -13.20 13.20 1.80 -1.80
+ 2.7730 68 18 exp 210 ------- 0 68.1 18.1 0 20 5.40 -5.40 -9.60 9.60
- 2.7730 68 18 exp 210 ------- 0 68.1 18.1 0 20 5.40 -5.40 -9.60 9.60
+ 2.7731 92 42 exp 210 ------- 0 92.1 42.1 0 21 12.60 -12.60 -2.40 2.40
- 2.7731 92 42 exp 210 ------- 0 92.1 42.1 0 21 12.60 -12.60 -2.40 2.40
+ 2.7750 95 45 exp 210 ------- 0 95.1 45.1 0 22 13.50 -13.50 -1.50 1.50
- 2.7750 95 45 exp 210 ------- 0 95.1 45.1 0 22 13.50 -13.50 -1.50 1.50
+ 2.7814 4 54 exp 210 ------- 0 4.0 54.0 0 23 -13.80 13.80 1.20 -1.20
- 2.7814 4 54 exp 210 ------- 0 4.0 54.0 0 23 -13.80 13.80 1.20 -1.20
+ 2.7819 42 92 exp 210 ------- 0 42.0 92.0 0 24 -2.40 2.40 12.60 -12.60
- 2.7819 42 92 exp 210 ------- 0 42.0 92.0 0 24 -2.40 2.40 12.60 -12.60
+ 2.7921 3 53 exp 210 ------- 0 3.0 53.0 0 25 -14.10 14.10 0.90 -0.90
- 2.7921 3 53 exp 210 ------- 0 3.0 53.0 0 25 -14.10 14.10 0.90 -0.90
+ 2.7956 97 47 exp 210 ------- 0 97.1 47.1 0 26 14.10 -14.10 -0.90 0.90
- 2.7956 97 47 exp 210 ------- 0 97.1 47.1 0 26 14.10 -14.10 -0.90 0.90
+ 2.7981 54 4 exp 210 ------- 0 54.1 4.1 0 27 1.20 -1.20 -13.80 13.80
- 2.7981 54 4 exp 210 ------- 0 54.1 4.1 0 27 1.20 -1.20 -13.80 13.80
+ 2.8010 30 80 exp 210 ------- 0 30.0 80.0 0 28 -6.00 6.00 9.00 -9.00
- 2.8010 30 80 exp 210 ------- 0 30.0 80.0 0 28 -6.00 6.00 9.00 -9.00
+ 2.8089 31 81 exp 210 ------- 0 31.0 81.0 0 29 -5.70 5.70 9.30 -9.30
- 2.8089 31 81 exp 210 ------- 0 31.0 81.0 0 29 -5.70 5.70 9.30 -9.30
+ 2.8158 17 67 exp 210 ------- 0 17.0 67.0 0 30 -9.90 9.90 5.10 -5.10
- 2.8158 17 67 exp 210 ------- 0 17.0 67.0 0 30 -9.90 9.90 5.10 -5.10
+ 2.8204 53 3 exp 210 ------- 0 53.1 3.1 0 31 0.90 -0.90 -14.10 14.10
- 2.8204 53 3 exp 210 ------- 0 53.1 3.1 0 31 0.90 -0.90 -14.10 14.10
+ 2.8240 80 30 exp 210 ------- 0 80.1 30.1 0 32 9.00 -9.00 -6.00 6.00
- 2.8240 80 30 exp 210 ------- 0 80.1 30.1 0 32 9.00 -9.00 -6.00 6.00
+ 2.8334 40 90 exp 210 ------- 0 40.0 90.0 0 33 -3.00 3.00 12.00 -12.00
- 2.8334 40 90 exp 210 ------- 0 40.0 90.0 0 33 -3.00 3.00 12.00 -12.00
+ 2.8335 61 11 exp 210 ------- 0 61.1 11.1 0 34 3.30 -3.30 -11.70 11.70
- 2.8335 61 11 exp 210 ------- 0 61.1 11.1 0 34 3.30 -3.30 -11.70 11.70
+ 2.8339 36 86 exp 210 ------- 0 36.0 86.0 0 35 -4.20 4.20 10.80 -10.80
- 2.8339 36 86 exp 210 ------- 0 36.0 86.0 0 35 -4.20 4.20 10.80 -10.80
+ 2.8524 91 41 exp 210 ------- 0 91.1 41.1 0 36 12.30 -12.30 -2.70 2.70
- 2.8524 91 41 exp 210 ------- 0 91.1 41.1 0 36 12.30 -12.30 -2.70 2.70
+ 2.8539 67 17 exp 210 ------- 0 67.1 17.1 0 37 5.10 -5.10 -9.90 9.90
- 2.8539 67 17 exp 210 ------- 0 67.1 17.1 0 37 5.10 -5.10 -9.90 9.90
+ 2.8614 47 97 exp 210 ------- 0 47.0 97.0 0 38 -0.90 0.90 14.10 -14.10
- 2.8614 47 97 exp 210 ------- 0 47.0 97.0 0 38 -0.90 0.90 14.10 -14.10
+ 2.8620 32 82 exp 210 ------- 0 32.0 82.0 0 39 -5.40 5.40 9.60 -9.60
- 2.8620 32 82 exp 210 ------- 0 32.0 82.0 0 39 -5.40 5.40 9.60 -9.60
+ 2.8762 81 31 exp 210 ------- 0 81.1 31.1 0 40 9.30 -9.30 -5.70 5.70
- 2.8762 81 31 exp 210 ------- 0 81.1 31.1 0 40 9.30 -9.30 -5.70 5.70
+ 2.8851 43 93 exp 210 ------- 0 43.0 93.0 0 41 -2.10 2.10 12.90 -12.90
- 2.8851 43 93 exp 210 ------- 0 43.0 93.0 0 41 -2.10 2.10 12.90 -12.90
+ 2.8912 84 34 exp 210 ------- 0 84.1 34.1 0 42 10.20 -10.20 -4.80 4.80
- 2.8912 84 34 exp 210 ------- 0 84.1 34.1 0 42 10.20 -10.20 -4.80 4.80
+ 2.9040 5 55 exp 210 ------- 0 5.0 55.0 0 43 -13.50 13.50 1.50 -1.50
- 2.9040 5 55 exp 210 ------- 0 5.0 55.0 0 43 -13.50 13.50 1.50 -1.50
+ 2.9054 70 20 exp 210 ------- 0 70.1 20.1 0 44 6.00 -6.00 -9.00 9.00
- 2.9054 70 20 exp 210 ------- 0 70.1 20.1 0 44 6.00 -6.00 -9.00 9.00
r 2.9327 33 83 exp 210 ------- 0 33.0 83.0 0 0 -5.10 5.10 9.90 -9.90
r 2.9348 77 27 exp 210 ------- 0 77.1 27.1 0 1 8.10 -8.10 -6.90 6.90
+ 2.9396 23 73 exp 210 ------- 0 23.0 73.0 0 45 -8.10 8.10 6.90 -6.90
- 2.9396 23 73 exp 210 ------- 0 23.0 73.0 0 45 -8.10 8.10 6.90 -6.90
r 2.9444 90 40 exp 210 ------- 0 90.1 40.1 0 2 12.00 -12.00 -3.00 3.00
r 2.9488 75 25 exp 210 ------- 0 75.1 25.1 0 3 7.50 -7.50 -7.50 7.50
r 2.9515 72 22 exp 210 ------- 0 72.1 22.1 0 4 6.60 -6.60 -8.40 8.40
+ 2.9522 94 44 exp 210 ------- 0 94.1 44.1 0 46 13.20 -13.20 -1.80 1.80
- 2.9522 94 44 exp 210 ------- 0 94.1 44.1 0 46 13.20 -13.20 -1.80 1.80
r 2.9700 74 24 exp 210 ------- 0 74.1 24.1 0 5 7.20 -7.20 -7.80 7.80
r 2.9718 38 88 exp 210 ------- 0 38.0 88.0 0 6 -3.60 3.60 11.40 -11.40
r 2.9724 73 23 exp 210 ------- 0 73.1 23.1 0 7 6.90 -6.90 -8.10 8.10
+ 2.9736 1 51 exp 210 ------- 0 1.0 51.0 0 47 -14.70 14.70 0.30 -0.30
- 2.9736 1 51 exp 210 ------- 0 1.0 51.0 0 47 -14.70 14.70 0.30 -0.30
r 2.9752 62 12 exp 210 ------- 0 62.1 12.1 0 8 3.60 -3.60 -11.40 11.40
r 2.9780 21 71 exp 210 ------- 0 21.0 71.0 0 9 -8.70 8.70 6.30 -6.30
r 2.9802 20 70 exp 210 ------- 0 20.0 70.0 0 10 -9.00 9.00 6.00 -6.00
c 2.9830 78 28 exp 210 ------- 0 78.1 28.1 0 11 8.40 -8.40 -6.60 6.60
+ 2.9836 26 76 exp 210 ------- 0 26.0 76.0 0 48 -7.20 7.20 7.80 -7.80
- 2.9836 26 76 exp 210 ------- 0 26.0 76.0 0 48 -7.20 7.20 7.80 -7.80
c 2.9843 51 1 exp 210 ------- 0 51.1 1.1 0 12 0.30 -0.30 -14.70 14.70
+ 2.9849 93 43 exp 210 ------- 0 93.1 43.1 0 49 12.90 -12.90 -2.10 2.10
- 2.9849 93 43 exp 210 ------- 0 93.1 43.1 0 49 12.90 -12.90 -2.10 2.10
r 2.9877 39 89 exp 210 ------- 0 39.0 89.0 0 13 -3.30 3.30 11.70 -11.70
+ 2.9924 76 26 exp 210 ------- 0 76.1 26.1 0 50 7.80 -7.80 -7.20 7.20
- 2.9924 76 26 exp 210 ------- 0 76.1 26.1 0 50 7.80 -7.80 -7.20 7.20
r 2.9931 35 85 exp 210 ------- 0 35.0 85.0 0 14 -4.50 4.50 10.50 -10.50
r 2.9949 14 64 exp 210 ------- 0 14.0 64.0 0 15 -10.80 10.80 4.20 -4.20
r 2.9980 96 46 exp 210 ------- 0 96.1 46.1 0 16 13.80 -13.80 -1.20 1.20
c 3.0003 16 66 exp 210 ------- 0 16.0 66.0 0 17 -10.20 10.20 4.80 -4.80
c 3.0011 63 13 exp 210 ------- 0 63.1 13.1 0 18 3.90 -3.90 -11.10 11.10
r 3.0103 6 56 exp 210 ------- 0 6.0 56.0 0 19 -13.20 13.20 1.80 -1.80
r 3.0136 68 18 exp 210 ------- 0 68.1 18.1 0 20 5.40 -5.40 -9.60 9.60
r 3.0140 92 42 exp 210 ------- 0 92.1 42.1 0 21 12.60 -12.60 -2.40 2.40
r 3.0161 95 45 exp 210 ------- 0 95.1 45.1 0 22 13.50 -13.50 -1.50 1.50
c 3.0215 4 54 exp 210 ------- 0 4.0 54.0 0 23 -13.80 13.80 1.20 -1.20
c 3.0227 42 92 exp 210 ------- 0 42.0 92.0 0 24 -2.40 2.40 12.60 -12.60
r 3.0332 3 53 exp 210 ------- 0 3.0 53.0 0 25 -14.10 14.10 0.90 -0.90
+ 3.0349 34 84 exp 210 ------- 0 34.0 84.0 0 51 -4.80 4.80 10.20 -10.20
- 3.0349 34 84 exp 210 ------- 0 34.0 84.0 0 51 -4.80 4.80 10.20 -10.20
r 3.0367 97 47 exp 210 ------- 0 97.1 47.1 0 26 14.10 -14.10 -0.90 0.90
r 3.0392 54 4 exp 210 ------- 0 54.1 4.1 0 27 1.20 -1.20 -13.80 13.80
r 3.0416 30 80 exp 210 ------- 0 30.0 80.0 0 28 -6.00 6.00 9.00 -9.00
r 3.0495 31 81 exp 210 ------- 0 31.0 81.0 0 29 -5.70 5.70 9.30 -9.30
+ 3.0499 99 49 exp 210 ------- 0 99.1 49.1 0 52 14.70 -14.70 -0.30 0.30
- 3.0499 99 49 exp 210 ------- 0 99.1 49.1 0 52 14.70 -14.70 -0.30 0.30
r 3.0563 17 67 exp 210 ------- 0 17.0 67.0 0 30 -9.90 9.90 5.10 -5.10
r 3.0615 53 3 exp 210 ------- 0 53.1 3.1 0 31 0.90 -0.90 -14.10 14.10
+ 3.0617 13 63 exp 210 ------- 0 13.0 63.0 0 53 -11.10 11.10 3.90 -3.90
- 3.0617 13 63 exp 210 ------- 0 13.0 63.0 0 53 -11.10 11.10 3.90 -3.90
r 3.0646 80 30 exp 210 ------- 0 80.1 30.1 0 32 9.00 -9.00 -6.00 6.00
c 3.0733 61 11 exp 210 ------- 0 61.1 11.1 0 34 3.30 -3.30 -11.70 11.70
c 3.0734 40 90 exp 210 ------- 0 40.0 90.0 0 33 -3.00 3.00 12.00 -12.00
c 3.0736 36 86 exp 210 ------- 0 36.0 86.0 0 35 -4.20 4.20 10.80 -10.80
+ 3.0779 55 5 exp 210 ------- 0 55.1 5.1 0 54 1.50 -1.50 -13.50 13.50
- 3.0779 55 5 exp 210 ------- 0 55.1 5.1 0 54 1.50 -1.50 -13.50 13.50
c 3.0929 91 41 exp 210 ------- 0 91.1 41.1 0 36 12.30 -12.30 -2.70 2.70
c 3.0936 67 17 exp 210 ------- 0 67.1 17.1 0 37 5.10 -5.10 -9.90 9.90
+ 3.0937 57 7 exp 210 ------- 0 57.1 7.1 0 55 2.10 -2.10 -12.90 12.90
- 3.0937 57 7 exp 210 ------- 0 57.1 7.1 0 55 2.10 -2.10 -12.90 12.90
c 3.1016 32 82 exp 210 ------- 0 32.0 82.0 0 39 -5.40 5.40 9.60 -9.60
c 3.1024 47 97 exp 210 ------- 0 47.0 97.0 0 38 -0.90 0.90 14.10 -14.10
+ 3.1070 28 78 exp 210 ------- 0 28.0 78.0 0 56 -6.60 6.60 8.40 -8.40
- 3.1070 28 78 exp 210 ------- 0 28.0 78.0 0 56 -6.60 6.60 8.40 -8.40
+ 3.1094 9 59 exp 210 ------- 0 9.0 59.0 0 57 -12.30 12.30 2.70 -2.70
- 3.1094 9 59 exp 210 ------- 0 9.0 59.0 0 57 -12.30 12.30 2.70 -2.70
+ 3.1103 60 10 exp 210 ------- 0 60.1 10.1 0 58 3.00 -3.00 -12.00 12.00
- 3.1103 60 10 exp 210 ------- 0 60.1 10.1 0 58 3.00 -3.00 -12.00 12.00
r 3.1168 81 31 exp 210 ------- 0 81.1 31.1 0 40 9.30 -9.30 -5.70 5.70
r 3.1260 43 93 exp 210 ------- 0 43.0 93.0 0 41 -2.10 2.10 12.90 -12.90
+ 3.1274 12 62 exp 210 ------- 0 12.0 62.0 0 59 -11.40 11.40 3.60 -3.60
- 3.1274 12 62 exp 210 ------- 0 12.0 62.0 0 59 -11.40 11.40 3.60 -3.60
+ 3.1302 44 94 exp 210 ------- 0 44.0 94.0 0 60 -1.80 1.80 13.20 -13.20
- 3.1302 44 94 exp 210 ------- 0 44.0 94.0 0 60 -1.80 1.80 13.20 -13.20
+ 3.1313 18 68 exp 210 ------- 0 18.0 68.0 0 61 -9.60 9.60 5.40 -5.40
- 3.1313 18 68 exp 210 ------- 0 18.0 68.0 0 61 -9.60 9.60 5.40 -5.40
r 3.1318 84 34 exp 210 ------- 0 84.1 34.1 0 42 10.20 -10.20 -4.80 4.80
+ 3.1329 19 69 exp 210 ------- 0 19.0 69.0 0 62 -9.30 9.30 5.70 -5.70
- 3.1329 19 69 exp 210 ------- 0 19.0 69.0 0 62 -9.30 9.30 5.70 -5.70
c 3.1445 5 55 exp 210 ------- 0 5.0 55.0 0 43 -13.50 13.50 1.50 -1.50
c 3.1451 70 20 exp 210 ------- 0 70.1 20.1 0 44 6.00 -6.00 -9.00 9.00
+ 3.1656 83 33 exp 210 ------- 0 83.1 33.1 0 63 9.90 -9.90 -5.10 5.10
- 3.1656 83 33 exp 210 ------- 0 83.1 33.1 0 63 9.90 -9.90 -5.10 5.10
+ 3.1723 45 95 exp 210 ------- 0 45.0 95.0 0 64 -1.50 1.50 13.50 -13.50
- 3.1723 45 95 exp 210 ------- 0 45.0 95.0 0 64 -1.50 1.50 13.50 -13.50
r 3.1801 23 73 exp 210 ------- 0 23.0 73.0 0 45 -8.10 8.10 6.90 -6.90
r 3.1931 94 44 exp 210 ------- 0 94.1 44.1 0 46 13.20 -13.20 -1.80 1.80
+ 3.1963 41 91 exp 210 ------- 0 41.0 91.0 0 65 -2.70 2.70 12.30 -12.30
- 3.1963 41 91 exp 210 ------- 0 41.0 91.0 0 65 -2.70 2.70 12.30 -12.30
+ 3.2067 11 61 exp 210 ------- 0 11.0 61.0 0 66 -11.70 11.70 3.30 -3.30
- 3.2067 11 61 exp 210 ------- 0 11.0 61.0 0 66 -11.70 11.70 3.30 -3.30
r 3.2148 1 51 exp 210 ------- 0 1.0 51.0 0 47 -14.70 14.70 0.30 -0.30
+ 3.2195 69 19 exp 210 ------- 0 69.1 19.1 0 67 5.70 -5.70 -9.30 9.30
- 3.2195 69 19 exp 210 ------- 0 69.1 19.1 0 67 5.70 -5.70 -9.30 9.30
r 3.2241 26 76 exp 210 ------- 0 26.0 76.0 0 48 -7.20 7.20 7.80 -7.80
r 3.2258 93 43 exp 210 ------- 0 93.1 43.1 0 49 12.90 -12.90 -2.10 2.10
r 3.2329 76 26 exp 210 ------- 0 76.1 26.1 0 50 7.80 -7.80 -7.20 7.20
+ 3.2384 29 79 exp 210 ------- 0 29.0 79.0 0 68 -6.30 6.30 8.70 -8.70
- 3.2384 29 79 exp 210 ------- 0 29.0 79.0 0 68 -6.30 6.30 8.70 -8.70
+ 3.2470 50 100 exp 210 ------- 0 50.0 100.0 0 69 0.00 0.00 15.00 -15.00
- 3.2470 50 100 exp 210 ------- 0 50.0 100.0 0 69 0.00 0.00 15.00 -15.00
+ 3.2737 49 99 exp 210 ------- 0 49.0 99.0 0 70 -0.30 0.30 14.70 -14.70
- 3.2737 49 99 exp 210 ------- 0 49.0 99.0 0 70 -0.30 0.30 14.70 -14.70
r 3.2755 34 84 exp 210 ------- 0 34.0 84.0 0 51 -4.80 4.80 10.20 -10.20
r 3.2863 63 13 exp 210 ------- 0 63.1 13.1 0 18 3.90 -3.90 -11.10 11.10
r 3.2911 99 49 exp 210 ------- 0 99.1 49.1 0 52 14.70 -14.70 -0.30 0.30
r 3.3023 13 63 exp 210 ------- 0 13.0 63.0 0 53 -11.10 11.10 3.90 -3.90
+ 3.3157 85 35 exp 210 ------- 0 85.1 35.1 0 71 10.50 -10.50 -4.50 4.50
- 3.3157 85 35 exp 210 ------- 0 85.1 35.1 0 71 10.50 -10.50 -4.50 4.50
r 3.3189 55 5 exp 210 ------- 0 55.1 5.1 0 54 1.50 -1.50 -13.50 13.50
r 3.3346 57 7 exp 210 ------- 0 57.1 7.1 0 55 2.10 -2.10 -12.90 12.90
+ 3.3351 100 50 exp 210 ------- 0 100.1 50.1 0 72 15.00 -15.00 0.00 0.00
- 3.3351 100 50 exp 210 ------- 0 100.1 50.1 0 72 15.00 -15.00 0.00 0.00
r 3.3475 28 78 exp 210 ------- 0 28.0 78.0 0 56 -6.60 6.60 8.40 -8.40
+ 3.3481 79 29 exp 210 ------- 0 79.1 29.1 0 73 8.70 -8.70 -6.30 6.30
- 3.3481 79 29 exp 210 ------- 0 79.1 29.1 0 73 8.70 -8.70 -6.30 6.30
c 3.3493 9 59 exp 210 ------- 0 9.0 59.0 0 57 -12.30 12.30 2.70 -2.70
+ 3.3500 27 77 exp 210 ------- 0 27.0 77.0 0 74 -6.90 6.90 8.10 -8.10
- 3.3500 27 77 exp 210 ------- 0 27.0 77.0 0 74 -6.90 6.90 8.10 -8.10
c 3.3504 60 10 exp 210 ------- 0 60.1 10.1 0 58 3.00 -3.00 -12.00 12.00
+ 3.3594 25 75 exp 210 ------- 0 25.0 75.0 0 75 -7.50 7.50 7.50 -7.50
- 3.3594 25 75 exp 210 ------- 0 25.0 75.0 0 75 -7.50 7.50 7.50 -7.50
r 3.3681 12 62 exp 210 ------- 0 12.0 62.0 0 59 -11.40 11.40 3.60 -3.60
r 3.3712 44 94 exp 210 ------- 0 44.0 94.0 0 60 -1.80 1.80 13.20 -13.20
r 3.3719 18 68 exp 210 ------- 0 18.0 68.0 0 61 -9.60 9.60 5.40 -5.40
r 3.3735 19 69 exp 210 ------- 0 19.0 69.0 0 62 -9.30 9.30 5.70 -5.70
r 3.3953 42 92 exp 210 ------- 0 42.0 92.0 0 24 -2.40 2.40 12.60 -12.60
+ 3.4029 64 14 exp 210 ------- 0 64.1 14.1 0 76 4.20 -4.20 -10.80 10.80
- 3.4029 64 14 exp 210 ------- 0 64.1 14.1 0 76 4.20 -4.20 -10.80 10.80
r 3.4062 83 33 exp 210 ------- 0 83.1 33.1 0 63 9.90 -9.90 -5.10 5.10
r 3.4133 45 95 exp 210 ------- 0 45.0 95.0 0 64 -1.50 1.50 13.50 -13.50
+ 3.4171 71 21 exp 210 ------- 0 71.1 21.1 0 77 6.30 -6.30 -8.70 8.70
- 3.4171 71 21 exp 210 ------- 0 71.1 21.1 0 77 6.30 -6.30 -8.70 8.70
r 3.4372 41 91 exp 210 ------- 0 41.0 91.0 0 65 -2.70 2.70 12.30 -12.30
+ 3.4436 15 65 exp 210 ------- 0 15.0 65.0 0 78 -10.50 10.50 4.50 -4.50
- 3.4436 15 65 exp 210 ------- 0 15.0 65.0 0 78 -10.50 10.50 4.50 -4.50
r 3.4475 11 61 exp 210 ------- 0 11.0 61.0 0 66 -11.70 11.70 3.30 -3.30
+ 3.4501 89 39 exp 210 ------- 0 89.1 39.1 0 79 11.70 -11.70 -3.30 3.30
- 3.4501 89 39 exp 210 ------- 0 89.1 39.1 0 79 11.70 -11.70 -3.30 3.30
+ 3.4505 59 9 exp 210 ------- 0 59.1 9.1 0 80 2.70 -2.70 -12.30 12.30
- 3.4505 59 9 exp 210 ------- 0 59.1 9.1 0 80 2.70 -2.70 -12.30 12.30
+ 3.4570 98 48 exp 210 ------- 0 98.1 48.1 0 81 14.40 -14.40 -0.60 0.60
- 3.4570 98 48 exp 210 ------- 0 98.1 48.1 0 81 14.40 -14.40 -0.60 0.60
c 3.4591 70 20 exp 210 ------- 0 70.1 20.1 0 44 6.00 -6.00 -9.00 9.00
c 3.4591 69 19 exp 210 ------- 0 69.1 19.1 0 67 5.70 -5.70 -9.30 9.30
r 3.4789 29 79 exp 210 ------- 0 29.0 79.0 0 68 -6.30 6.30 8.70 -8.70
r 3.4883 50 100 exp 210 ------- 0 50.0 100.0 0 69 0.00 0.00 15.00 -15.00
+ 3.5028 86 36 exp 210 ------- 0 86.1 36.1 0 82 10.80 -10.80 -4.20 4.20
- 3.5028 86 36 exp 210 ------- 0 86.1 36.1 0 82 10.80 -10.80 -4.20 4.20
r 3.5150 49 99 exp 210 ------- 0 49.0 99.0 0 70 -0.30 0.30 14.70 -14.70
r 3.5455 51 1 exp 210 ------- 0 51.1 1.1 0 12 0.30 -0.30 -14.70 14.70
+ 3.5467 65 15 exp 210 ------- 0 65.1 15.1 0 83 4.50 -4.50 -10.50 10.50
- 3.5467 65 15 exp 210 ------- 0 65.1 15.1 0 83 4.50 -4.50 -10.50 10.50
r 3.5563 85 35 exp 210 ------- 0 85.1 35.1 0 71 10.50 -10.50 -4.50 4.50
+ 3.5624 52 2 exp 210 ------- 0 52.1 2.1 0 84 0.60 -0.60 -14.40 14.40
- 3.5624 52 2 exp 210 ------- 0 52.1 2.1 0 84 0.60 -0.60 -14.40 14.40
r 3.5693 47 97 exp 210 ------- 0 47.0 97.0 0 38 -0.90 0.90 14.10 -14.10
r 3.5764 100 50 exp 210 ------- 0 100.1 50.1 0 72 15.00 -15.00 0.00 0.00
r 3.5886 79 29 exp 210 ------- 0 79.1 29.1 0 73 8.70 -8.70 -6.30 6.30
+ 3.5905 82 32 exp 210 ------- 0 82.1 32.1 0 85 9.60 -9.60 -5.40 5.40
- 3.5905 82 32 exp 210 ------- 0 82.1 32.1 0 85 9.60 -9.60 -5.40 5.40
r 3.5905 27 77 exp 210 ------- 0 27.0 77.0 0 74 -6.90 6.90 8.10 -8.10
r 3.5998 25 75 exp 210 ------- 0 25.0 75.0 0 75 -7.50 7.50 7.50 -7.50
r 3.6019 78 28 exp 210 ------- 0 78.1 28.1 0 11 8.40 -8.40 -6.60 6.60
r 3.6436 64 14 exp 210 ------- 0 64.1 14.1 0 76 4.20 -4.20 -10.80 10.80
r 3.6576 71 21 exp 210 ------- 0 71.1 21.1 0 77 6.30 -6.30 -8.70 8.70
r 3.6842 15 65 exp 210 ------- 0 15.0 65.0 0 78 -10.50 10.50 4.50 -4.50
r 3.6868 40 90 exp 210 ------- 0 40.0 90.0 0 33 -3.00 3.00 12.00 -12.00
c 3.6899 89 39 exp 210 ------- 0 89.1 39.1 0 79 11.70 -11.70 -3.30 3.30
c 3.6910 59 9 exp 210 ------- 0 59.1 9.1 0 80 2.70 -2.70 -12.30 12.30
r 3.6982 98 48 exp 210 ------- 0 98.1 48.1 0 81 14.40 -14.40 -0.60 0.60
+ 3.7274 24 74 exp 210 ------- 0 24.0 74.0 0 86 -7.80 7.80 7.20 -7.20
- 3.7274 24 74 exp 210 ------- 0 24.0 74.0 0 86 -7.80 7.80 7.20 -7.20
r 3.7342 69 19 exp 210 ------- 0 69.1 19.1 0 67 5.70 -5.70 -9.30 9.30
r 3.7424 32 82 exp 210 ------- 0 32.0 82.0 0 39 -5.40 5.40 9.60 -9.60
r 3.7434 86 36 exp 210 ------- 0 86.1 36.1 0 82 10.80 -10.80 -4.20 4.20
+ 3.7436 58 8 exp 210 ------- 0 58.1 8.1 0 87 2.40 -2.40 -12.60 12.60
- 3.7436 58 8 exp 210 ------- 0 58.1 8.1 0 87 2.40 -2.40 -12.60 12.60
+ 3.7666 8 58 exp 210 ------- 0 8.0 58.0 0 88 -12.60 12.60 2.40 -2.40
- 3.7666 8 58 exp 210 ------- 0 8.0 58.0 0 88 -12.60 12.60 2.40 -2.40
r 3.7873 65 15 exp 210 ------- 0 65.1 15.1 0 83 4.50 -4.50 -10.50 10.50
r 3.8012 9 59 exp 210 ------- 0 9.0 59.0 0 57 -12.30 12.30 2.70 -2.70
r 3.8036 52 2 exp 210 ------- 0 52.1 2.1 0 84 0.60 -0.60 -14.40 14.40
r 3.8311 82 32 exp 210 ------- 0 82.1 32.1 0 85 9.60 -9.60 -5.40 5.40
+ 3.8615 10 60 exp 210 ------- 0 10.0 60.0 0 89 -12.00 12.00 3.00 -3.00
- 3.8615 10 60 exp 210 ------- 0 10.0 60.0 0 89 -12.00 12.00 3.00 -3.00
r 3.8645 36 86 exp 210 ------- 0 36.0 86.0 0 35 -4.20 4.20 10.80 -10.80
+ 3.8941 37 87 exp 210 ------- 0 37.0 87.0 0 90 -3.90 3.90 11.10 -11.10
- 3.8941 37 87 exp 210 ------- 0 37.0 87.0 0 90 -3.90 3.90 11.10 -11.10
+ 3.8945 2 52 exp 210 ------- 0 2.0 52.0 0 91 -14.40 14.40 0.60 -0.60
- 3.8945 2 52 exp 210 ------- 0 2.0 52.0 0 91 -14.40 14.40 0.60 -0.60
+ 3.9219 46 96 exp 210 ------- 0 46.0 96.0 0 92 -1.20 1.20 13.80 -13.80
- 3.9219 46 96 exp 210 ------- 0 46.0 96.0 0 92 -1.20 1.20 13.80 -13.80
+ 3.9594 87 37 exp 210 ------- 0 87.1 37.1 0 93 11.10 -11.10 -3.90 3.90
- 3.9594 87 37 exp 210 ------- 0 87.1 37.1 0 93 11.10 -11.10 -3.90 3.90
r 3.9679 24 74 exp 210 ------- 0 24.0 74.0 0 86 -7.80 7.80 7.20 -7.20
r 3.9844 58 8 exp 210 ------- 0 58.1 8.1 0 87 2.40 -2.40 -12.60 12.60
r 3.9846 91 41 exp 210 ------- 0 91.1 41.1 0 36 12.30 -12.30 -2.70 2.70
r 4.0075 8 58 exp 210 ------- 0 8.0 58.0 0 88 -12.60 12.60 2.40 -2.40
+ 4.1002 22 72 exp 210 ------- 0 22.0 72.0 0 94 -8.40 8.40 6.60 -6.60
- 4.1002 22 72 exp 210 ------- 0 22.0 72.0 0 94 -8.40 8.40 6.60 -6.60
r 4.1023 10 60 exp 210 ------- 0 10.0 60.0 0 89 -12.00 12.00 3.00 -3.00
r 4.1348 37 87 exp 210 ------- 0 37.0 87.0 0 90 -3.90 3.90 11.10 -11.10
r 4.1357 2 52 exp 210 ------- 0 2.0 52.0 0 91 -14.40 14.40 0.60 -0.60
+ 4.1402 88 38 exp 210 ------- 0 88.1 38.1 0 95 11.40 -11.40 -3.60 3.60
- 4.1402 88 38 exp 210 ------- 0 88.1 38.1 0 95 11.40 -11.40 -3.60 3.60
r 4.1629 46 96 exp 210 ------- 0 46.0 96.0 0 92 -1.20 1.20 13.80 -13.80
r 4.1739 59 9 exp 210 ------- 0 59.1 9.1 0 80 2.70 -2.70 -12.30 12.30
r 4.2001 87 37 exp 210 ------- 0 87.1 37.1 0 93 11.10 -11.10 -3.90 3.90
+ 4.2557 7 57 exp 210 ------- 0 7.0 57.0 0 96 -12.90 12.90 2.10 -2.10
- 4.2557 7 57 exp 210 ------- 0 7.0 57.0 0 96 -12.90 12.90 2.10 -2.10
r 4.2886 60 10 exp 210 ------- 0 60.1 10.1 0 58 3.00 -3.00 -12.00 12.00
+ 4.2957 66 16 exp 210 ------- 0 66.1 16.1 0 97 4.80 -4.80 -10.20 10.20
- 4.2957 66 16 exp 210 ------- 0 66.1 16.1 0 97 4.80 -4.80 -10.20 10.20
r 4.3407 22 72 exp 210 ------- 0 22.0 72.0 0 94 -8.40 8.40 6.60 -6.60
r 4.3809 88 38 exp 210 ------- 0 88.1 38.1 0 95 11.40 -11.40 -3.60 3.60
+ 4.3888 48 98 exp 210 ------- 0 48.0 98.0 0 98 -0.60 0.60 14.40 -14.40
- 4.3888 48 98 exp 210 ------- 0 48.0 98.0 0 98 -0.60 0.60 14.40 -14.40
+ 4.4175 38 88 exp 210 ------- 0 38.0 88.0 1 99 -3.60 3.60 11.40 -11.40
- 4.4175 38 88 exp 210 ------- 0 38.0 88.0 1 99 -3.60 3.60 11.40 -11.40
+ 4.4446 72 22 exp 210 ------- 0 72.1 22.1 1 100 6.60 -6.60 -8.40 8.40
- 4.4446 72 22 exp 210 ------- 0 72.1 22.1 1 100 6.60 -6.60 -8.40 8.40
+ 4.4756 97 47 exp 210 ------- 0 97.1 47.1 1 101 14.10 -14.10 -0.90 0.90
- 4.4756 97 47 exp 210 ------- 0 97.1 47.1 1 101 14.10 -14.10 -0.90 0.90
r 4.4966 7 57 exp 210 ------- 0 7.0 57.0 0 96 -12.90 12.90 2.10 -2.10
+ 4.5293 54 4 exp 210 ------- 0 54.1 4.1 1 102 1.20 -1.20 -13.80 13.80
- 4.5293 54 4 exp 210 ------- 0 54.1 4.1 1 102 1.20 -1.20 -13.80 13.80
r 4.5363 66 16 exp 210 ------- 0 66.1 16.1 0 97 4.80 -4.80 -10.20 10.20
+ 4.5471 3 53 exp 210 ------- 0 3.0 53.0 1 103 -14.10 14.10 0.90 -0.90
- 4.5471 3 53 exp 210 ------- 0 3.0 53.0 1 103 -14.10 14.10 0.90 -0.90
+ 4.5475 33 83 exp 210 ------- 0 33.0 83.0 1 104 -5.10 5.10 9.90 -9.90
- 4.5475 33 83 exp 210 ------- 0 33.0 83.0 1 104 -5.10 5.10 9.90 -9.90
+ 4.5631 96 46 exp 210 ------- 0 96.1 46.1 1 105 13.80 -13.80 -1.20 1.20
- 4.5631 96 46 exp 210 ------- 0 96.1 46.1 1 105 13.80 -13.80 -1.20 1.20
r 4.6143 61 11 exp 210 ------- 0 61.1 11.1 0 34 3.30 -3.30 -11.70 11.70
+ 4.6183 63 13 exp 210 ------- 0 63.1 13.1 1 106 3.90 -3.90 -11.10 11.10
- 4.6183 63 13 exp 210 ------- 0 63.1 13.1 1 106 3.90 -3.90 -11.10 11.10
+ 4.6221 91 41 exp 210 ------- 0 91.1 41.1 1 107 12.30 -12.30 -2.70 2.70
- 4.6221 91 41 exp 210 ------- 0 91.1 41.1 1 107 12.30 -12.30 -2.70 2.70
+ 4.6221 32 82 exp 210 ------- 0 32.0 82.0 1 108 -5.40 5.40 9.60 -9.60
- 4.6221 32 82 exp 210 ------- 0 32.0 82.0 1 108 -5.40 5.40 9.60 -9.60
r 4.6300 48 98 exp 210 ------- 0 48.0 98.0 0 98 -0.60 0.60 14.40 -14.40
+ 4.6536 1 51 exp 210 ------- 0 1.0 51.0 1 109 -14.70 14.70 0.30 -0.30
- 4.6536 1 51 exp 210 ------- 0 1.0 51.0 1 109 -14.70 14.70 0.30 -0.30
+ 4.6536 51 1 exp 210 ------- 0 51.1 1.1 1 110 0.30 -0.30 -14.70 14.70
- 4.6536 51 1 exp 210 ------- 0 51.1 1.1 1 110 0.30 -0.30 -14.70 14.70
r 4.6537 70 20 exp 210 ------- 0 70.1 20.1 0 44 6.00 -6.00 -9.00 9.00
r 4.6582 38 88 exp 210 ------- 0 38.0 88.0 1 99 -3.60 3.60 11.40 -11.40
r 4.6851 72 22 exp 210 ------- 0 72.1 22.1 1 100 6.60 -6.60 -8.40 8.40
+ 4.7051 93 43 exp 210 ------- 0 93.1 43.1 1 111 12.90 -12.90 -2.10 2.10
- 4.7051 93 43 exp 210 ------- 0 93.1 43.1 1 111 12.90 -12.90 -2.10 2.10
r 4.7167 97 47 exp 210 ------- 0 97.1 47.1 1 101 14.10 -14.10 -0.90 0.90
+ 4.7248 68 18 exp 210 ------- 0 68.1 18.1 1 112 5.40 -5.40 -9.60 9.60
- 4.7248 68 18 exp 210 ------- 0 68.1 18.1 1 112 5.40 -5.40 -9.60 9.60
+ 4.7336 77 27 exp 210 ------- 0 77.1 27.1 1 113 8.10 -8.10 -6.90 6.90
- 4.7336 77 27 exp 210 ------- 0 77.1 27.1 1 113 8.10 -8.10 -6.90 6.90
+ 4.7454 16 66 exp 210 ------- 0 16.0 66.0 1 114 -10.20 10.20 4.80 -4.80
+ 4.7477 56 6 exp 210 ------- 0 56.1 6.1 0 115 1.80 -1.80 -13.20 13.20
- 4.7477 56 6 exp 210 ------- 0 56.1 6.1 0 115 1.80 -1.80 -13.20 13.20
+ 4.7534 73 23 exp 210 ------- 0 73.1 23.1 1 116 6.90 -6.90 -8.10 8.10
- 4.7534 73 23 exp 210 ------- 0 73.1 23.1 1 116 6.90 -6.90 -8.10 8.10
+ 4.7698 80 30 exp 210 ------- 0 80.1 30.1 1 117 9.00 -9.00 -6.00 6.00
- 4.7698 80 30 exp 210 ------- 0 80.1 30.1 1 117 9.00 -9.00 -6.00 6.00
r 4.7703 54 4 exp 210 ------- 0 54.1 4.1 1 102 1.20 -1.20 -13.80 13.80
+ 4.7762 6 56 exp 210 ------- 0 6.0 56.0 1 118 -13.20 13.20 1.80 -1.80
- 4.7762 6 56 exp 210 ------- 0 6.0 56.0 1 118 -13.20 13.20 1.80 -1.80
r 4.7788 89 39 exp 210 ------- 0 89.1 39.1 0 79 11.70 -11.70 -3.30 3.30
+ 4.7791 74 24 exp 210 ------- 0 74.1 24.1 1 119 7.20 -7.20 -7.80 7.80
- 4.7791 74 24 exp 210 ------- 0 74.1 24.1 1 119 7.20 -7.20 -7.80 7.80
c 4.7873 3 53 exp 210 ------- 0 3.0 53.0 1 103 -14.10 14.10 0.90 -0.90
c 4.7881 33 83 exp 210 ------- 0 33.0 83.0 1 104 -5.10 5.10 9.90 -9.90
+ 4.7903 40 90 exp 210 ------- 0 40.0 90.0 1 120 -3.00 3.00 12.00 -12.00
- 4.7903 40 90 exp 210 ------- 0 40.0 90.0 1 120 -3.00 3.00 12.00 -12.00
+ 4.7964 47 97 exp 210 ------- 0 47.0 97.0 1 121 -0.90 0.90 14.10 -14.10
- 4.7964 47 97 exp 210 ------- 0 47.0 97.0 1 121 -0.90 0.90 14.10 -14.10
r 4.8042 96 46 exp 210 ------- 0 96.1 46.1 1 105 13.80 -13.80 -1.20 1.20
+ 4.8055 42 92 exp 210 ------- 0 42.0 92.0 1 122 -2.40 2.40 12.60 -12.60
- 4.8055 42 92 exp 210 ------- 0 42.0 92.0 1 122 -2.40 2.40 12.60 -12.60
+ 4.8131 13 63 exp 210 ------- 0 13.0 63.0 1 123 -11.10 11.10 3.90 -3.90
- 4.8131 13 63 exp 210 ------- 0 13.0 63.0 1 123 -11.10 11.10 3.90 -3.90
+ 4.8168 30 80 exp 210 ------- 0 30.0 80.0 1 124 -6.00 6.00 9.00 -9.00
- 4.8168 30 80 exp 210 ------- 0 30.0 80.0 1 124 -6.00 6.00 9.00 -9.00
+ 4.8283 34 84 exp 210 ------- 0 34.0 84.0 1 125 -4.80 4.80 10.20 -10.20
- 4.8283 34 84 exp 210 ------- 0 34.0 84.0 1 125 -4.80 4.80 10.20 -10.20
+ 4.8357 4 54 exp 210 ------- 0 4.0 54.0 1 126 -13.80 13.80 1.20 -1.20
r 4.8590 63 13 exp 210 ------- 0 63.1 13.1 1 106 3.90 -3.90 -11.10 11.10
c 4.8620 91 41 exp 210 ------- 0 91.1 41.1 1 107 12.30 -12.30 -2.70 2.70
c 4.8626 32 82 exp 210 ------- 0 32.0 82.0 1 108 -5.40 5.40 9.60 -9.60
c 4.8628 16 66 exp 210 ------- 0 16.0 66.0 0 17 -10.20 10.20 4.80 -4.80
+ 4.8680 36 86 exp 210 ------- 0 36.0 86.0 1 127 -4.20 4.20 10.80 -10.80
- 4.8680 36 86 exp 210 ------- 0 36.0 86.0 1 127 -4.20 4.20 10.80 -10.80
+ 4.8836 62 12 exp 210 ------- 0 62.1 12.1 1 128 3.60 -3.60 -11.40 11.40
- 4.8836 62 12 exp 210 ------- 0 62.1 12.1 1 128 3.60 -3.60 -11.40 11.40
+ 4.8905 31 81 exp 210 ------- 0 31.0 81.0 1 129 -5.70 5.70 9.30 -9.30
- 4.8905 31 81 exp 210 ------- 0 31.0 81.0 1 129 -5.70 5.70 9.30 -9.30
r 4.8948 1 51 exp 210 ------- 0 1.0 51.0 1 109 -14.70 14.70 0.30 -0.30
r 4.8949 51 1 exp 210 ------- 0 51.1 1.1 1 110 0.30 -0.30 -14.70 14.70
+ 4.8989 67 17 exp 210 ------- 0 67.1 17.1 1 130 5.10 -5.10 -9.90 9.90
+ 4.9000 18 68 exp 210 ------- 0 18.0 68.0 1 131 -9.60 9.60 5.40 -5.40
- 4.9000 18 68 exp 210 ------- 0 18.0 68.0 1 131 -9.60 9.60 5.40 -5.40
+ 4.9243 14 64 exp 210 ------- 0 14.0 64.0 1 132 -10.80 10.80 4.20 -4.20
- 4.9243 14 64 exp 210 ------- 0 14.0 64.0 1 132 -10.80 10.80 4.20 -4.20
+ 4.9270 50 100 exp 210 ------- 0 50.0 100.0 1 133 0.00 0.00 15.00 -15.00
- 4.9270 50 100 exp 210 ------- 0 50.0 100.0 1 133 0.00 0.00 15.00 -15.00
+ 4.9349 21 71 exp 210 ------- 0 21.0 71.0 1 134 -8.70 8.70 6.30 -6.30
- 4.9349 21 71 exp 210 ------- 0 21.0 71.0 1 134 -8.70 8.70 6.30 -6.30
+ 4.9401 26 76 exp 210 ------- 0 26.0 76.0 1 135 -7.20 7.20 7.80 -7.80
- 4.9401 26 76 exp 210 ------- 0 26.0 76.0 1 135 -7.20 7.20 7.80 -7.80
r 4.9461 93 43 exp 210 ------- 0 93.1 43.1 1 111 12.90 -12.90 -2.10 2.10
+ 4.9496 84 34 exp 210 ------- 0 84.1 34.1 1 136 10.20 -10.20 -4.80 4.80
- 4.9496 84 34 exp 210 ------- 0 84.1 34.1 1 136 10.20 -10.20 -4.80 4.80
r 4.9654 68 18 exp 210 ------- 0 68.1 18.1 1 112 5.40 -5.40 -9.60 9.60
r 4.9741 77 27 exp 210 ------- 0 77.1 27.1 1 113 8.10 -8.10 -6.90 6.90
+ 4.9746 9 59 exp 210 ------- 0 9.0 59.0 1 137 -12.30 12.30 2.70 -2.70
- 4.9746 9 59 exp 210 ------- 0 9.0 59.0 1 137 -12.30 12.30 2.70 -2.70
+ 4.9817 23 73 exp 210 ------- 0 23.0 73.0 1 138 -8.10 8.10 6.90 -6.90
- 4.9817 23 73 exp 210 ------- 0 23.0 73.0 1 138 -8.10 8.10 6.90 -6.90
r 4.9886 56 6 exp 210 ------- 0 56.1 6.1 0 115 1.80 -1.80 -13.20 13.20
r 4.9939 73 23 exp 210 ------- 0 73.1 23.1 1 116 6.90 -6.90 -8.10 8.10
+ 4.9986 60 10 exp 210 ------- 0 60.1 10.1 1 139 3.00 -3.00 -12.00 12.00
- 4.9986 60 10 exp 210 ------- 0 60.1 10.1 1 139 3.00 -3.00 -12.00 12.00
r 5.0103 80 30 exp 210 ------- 0 80.1 30.1 1 117 9.00 -9.00 -6.00 6.00
r 5.0172 6 56 exp 210 ------- 0 6.0 56.0 1 118 -13.20 13.20 1.80 -1.80
r 5.0195 74 24 exp 210 ------- 0 74.1 24.1 1 119 7.20 -7.20 -7.80 7.80
+ 5.0255 35 85 exp 210 ------- 0 35.0 85.0 1 140 -4.50 4.50 10.50 -10.50
- 5.0255 35 85 exp 210 ------- 0 35.0 85.0 1 140 -4.50 4.50 10.50 -10.50
r 5.0311 40 90 exp 210 ------- 0 40.0 90.0 1 120 -3.00 3.00 12.00 -12.00
+ 5.0362 95 45 exp 210 ------- 0 95.1 45.1 1 141 13.50 -13.50 -1.50 1.50
- 5.0362 95 45 exp 210 ------- 0 95.1 45.1 1 141 13.50 -13.50 -1.50 1.50
r 5.0375 47 97 exp 210 ------- 0 47.0 97.0 1 121 -0.90 0.90 14.10 -14.10
+ 5.0387 53 3 exp 210 ------- 0 53.1 3.1 1 142 0.90 -0.90 -14.10 14.10