+ 0.5 1 0 tcp 40 ------- 1 1.0 3.0 0 0
- 0.5 1 0 tcp 40 ------- 1 1.0 3.0 0 0
r 0.51032 1 0 tcp 40 ------- 1 1.0 3.0 0 0
+ 0.51032 0 3 tcp 40 ------- 1 1.0 3.0 0 0
- 0.51032 0 3 tcp 40 ------- 1 1.0 3.0 0 0
r 0.52064 0 3 tcp 40 ------- 1 1.0 3.0 0 0
+ 0.52064 3 0 ack 40 ------- 1 3.0 1.0 0 1
- 0.52064 3 0 ack 40 ------- 1 3.0 1.0 0 1
r 0.53096 3 0 ack 40 ------- 1 3.0 1.0 0 1
+ 0.53096 0 1 ack 40 ------- 1 3.0 1.0 0 1
- 0.53096 0 1 ack 40 ------- 1 3.0 1.0 0 1
r 0.54128 0 1 ack 40 ------- 1 3.0 1.0 0 1
+ 0.54128 1 0 tcp 1040 ------- 1 1.0 3.0 1 2
- 0.54128 1 0 tcp 1040 ------- 1 1.0 3.0 1 2
+ 0.54128 1 0 tcp 1040 ------- 1 1.0 3.0 2 3
- 0.5496 1 0 tcp 1040 ------- 1 1.0 3.0 2 3
r 0.5596 1 0 tcp 1040 ------- 1 1.0 3.0 1 2
+ 0.5596 0 3 tcp 1040 ------- 1 1.0 3.0 1 2
- 0.5596 0 3 tcp 1040 ------- 1 1.0 3.0 1 2
r 0.56792 1 0 tcp 1040 ------- 1 1.0 3.0 2 3
+ 0.56792 0 3 tcp 1040 ------- 1 1.0 3.0 2 3
- 0.56792 0 3 tcp 1040 ------- 1 1.0 3.0 2 3
r 0.57792 0 3 tcp 1040 ------- 1 1.0 3.0 1 2
+ 0.57792 3 0 ack 40 ------- 1 3.0 1.0 1 4
- 0.57792 3 0 ack 40 ------- 1 3.0 1.0 1 4
r 0.58624 0 3 tcp 1040 ------- 1 1.0 3.0 2 3
+ 0.58624 3 0 ack 40 ------- 1 3.0 1.0 2 5
- 0.58624 3 0 ack 40 ------- 1 3.0 1.0 2 5
r 0.58824 3 0 ack 40 ------- 1 3.0 1.0 1 4
+ 0.58824 0 1 ack 40 ------- 1 3.0 1.0 1 4
- 0.58824 0 1 ack 40 ------- 1 3.0 1.0 1 4
r 0.59656 3 0 ack 40 ------- 1 3.0 1.0 2 5
+ 0.59656 0 1 ack 40 ------- 1 3.0 1.0 2 5
- 0.59656 0 1 ack 40 ------- 1 3.0 1.0 2 5
r 0.59856 0 1 ack 40 ------- 1 3.0 1.0 1 4
+ 0.59856 1 0 tcp 1040 ------- 1 1.0 3.0 3 6
- 0.59856 1 0 tcp 1040 ------- 1 1.0 3.0 3 6
+ 0.59856 1 0 tcp 1040 ------- 1 1.0 3.0 4 7
r 0.60688 0 1 ack 40 ------- 1 3.0 1.0 2 5
+ 0.60688 1 0 tcp 1040 ------- 1 1.0 3.0 5 8
+ 0.60688 1 0 tcp 1040 ------- 1 1.0 3.0 6 9
- 0.60688 1 0 tcp 1040 ------- 1 1.0 3.0 4 7
- 0.6152 1 0 tcp 1040 ------- 1 1.0 3.0 5 8
r 0.61688 1 0 tcp 1040 ------- 1 1.0 3.0 3 6
+ 0.61688 0 3 tcp 1040 ------- 1 1.0 3.0 3 6
- 0.61688 0 3 tcp 1040 ------- 1 1.0 3.0 3 6
- 0.62352 1 0 tcp 1040 ------- 1 1.0 3.0 6 9
r 0.6252 1 0 tcp 1040 ------- 1 1.0 3.0 4 7
+ 0.6252 0 3 tcp 1040 ------- 1 1.0 3.0 4 7
- 0.6252 0 3 tcp 1040 ------- 1 1.0 3.0 4 7
r 0.63352 1 0 tcp 1040 ------- 1 1.0 3.0 5 8
+ 0.63352 0 3 tcp 1040 ------- 1 1.0 3.0 5 8
- 0.63352 0 3 tcp 1040 ------- 1 1.0 3.0 5 8
r 0.6352 0 3 tcp 1040 ------- 1 1.0 3.0 3 6
+ 0.6352 3 0 ack 40 ------- 1 3.0 1.0 3 10
- 0.6352 3 0 ack 40 ------- 1 3.0 1.0 3 10
r 0.64184 1 0 tcp 1040 ------- 1 1.0 3.0 6 9
+ 0.64184 0 3 tcp 1040 ------- 1 1.0 3.0 6 9
- 0.64184 0 3 tcp 1040 ------- 1 1.0 3.0 6 9
r 0.64352 0 3 tcp 1040 ------- 1 1.0 3.0 4 7
+ 0.64352 3 0 ack 40 ------- 1 3.0 1.0 4 11
- 0.64352 3 0 ack 40 ------- 1 3.0 1.0 4 11
r 0.64552 3 0 ack 40 ------- 1 3.0 1.0 3 10
+ 0.64552 0 1 ack 40 ------- 1 3.0 1.0 3 10
- 0.64552 0 1 ack 40 ------- 1 3.0 1.0 3 10
r 0.65184 0 3 tcp 1040 ------- 1 1.0 3.0 5 8
+ 0.65184 3 0 ack 40 ------- 1 3.0 1.0 5 12
- 0.65184 3 0 ack 40 ------- 1 3.0 1.0 5 12
r 0.65384 3 0 ack 40 ------- 1 3.0 1.0 4 11
+ 0.65384 0 1 ack 40 ------- 1 3.0 1.0 4 11
- 0.65384 0 1 ack 40 ------- 1 3.0 1.0 4 11
r 0.65584 0 1 ack 40 ------- 1 3.0 1.0 3 10
+ 0.65584 1 0 tcp 1040 ------- 1 1.0 3.0 7 13
- 0.65584 1 0 tcp 1040 ------- 1 1.0 3.0 7 13
+ 0.65584 1 0 tcp 1040 ------- 1 1.0 3.0 8 14
r 0.66016 0 3 tcp 1040 ------- 1 1.0 3.0 6 9
+ 0.66016 3 0 ack 40 ------- 1 3.0 1.0 6 15
- 0.66016 3 0 ack 40 ------- 1 3.0 1.0 6 15
r 0.66216 3 0 ack 40 ------- 1 3.0 1.0 5 12
+ 0.66216 0 1 ack 40 ------- 1 3.0 1.0 5 12
- 0.66216 0 1 ack 40 ------- 1 3.0 1.0 5 12
r 0.66416 0 1 ack 40 ------- 1 3.0 1.0 4 11
+ 0.66416 1 0 tcp 1040 ------- 1 1.0 3.0 9 16
+ 0.66416 1 0 tcp 1040 ------- 1 1.0 3.0 10 17
- 0.66416 1 0 tcp 1040 ------- 1 1.0 3.0 8 14
r 0.67048 3 0 ack 40 ------- 1 3.0 1.0 6 15
+ 0.67048 0 1 ack 40 ------- 1 3.0 1.0 6 15
- 0.67048 0 1 ack 40 ------- 1 3.0 1.0 6 15
r 0.67248 0 1 ack 40 ------- 1 3.0 1.0 5 12
+ 0.67248 1 0 tcp 1040 ------- 1 1.0 3.0 11 18
+ 0.67248 1 0 tcp 1040 ------- 1 1.0 3.0 12 19
- 0.67248 1 0 tcp 1040 ------- 1 1.0 3.0 9 16
r 0.67416 1 0 tcp 1040 ------- 1 1.0 3.0 7 13
+ 0.67416 0 3 tcp 1040 ------- 1 1.0 3.0 7 13
- 0.67416 0 3 tcp 1040 ------- 1 1.0 3.0 7 13
r 0.6808 0 1 ack 40 ------- 1 3.0 1.0 6 15
+ 0.6808 1 0 tcp 1040 ------- 1 1.0 3.0 13 20
+ 0.6808 1 0 tcp 1040 ------- 1 1.0 3.0 14 21
- 0.6808 1 0 tcp 1040 ------- 1 1.0 3.0 10 17
r 0.68248 1 0 tcp 1040 ------- 1 1.0 3.0 8 14
+ 0.68248 0 3 tcp 1040 ------- 1 1.0 3.0 8 14
- 0.68248 0 3 tcp 1040 ------- 1 1.0 3.0 8 14
- 0.68912 1 0 tcp 1040 ------- 1 1.0 3.0 11 18
r 0.6908 1 0 tcp 1040 ------- 1 1.0 3.0 9 16
+ 0.6908 0 3 tcp 1040 ------- 1 1.0 3.0 9 16
- 0.6908 0 3 tcp 1040 ------- 1 1.0 3.0 9 16
r 0.69248 0 3 tcp 1040 ------- 1 1.0 3.0 7 13
+ 0.69248 3 0 ack 40 ------- 1 3.0 1.0 7 22
- 0.69248 3 0 ack 40 ------- 1 3.0 1.0 7 22
- 0.69744 1 0 tcp 1040 ------- 1 1.0 3.0 12 19
r 0.69912 1 0 tcp 1040 ------- 1 1.0 3.0 10 17
+ 0.69912 0 3 tcp 1040 ------- 1 1.0 3.0 10 17
- 0.69912 0 3 tcp 1040 ------- 1 1.0 3.0 10 17
r 0.7008 0 3 tcp 1040 ------- 1 1.0 3.0 8 14
+ 0.7008 3 0 ack 40 ------- 1 3.0 1.0 8 23
- 0.7008 3 0 ack 40 ------- 1 3.0 1.0 8 23
r 0.7028 3 0 ack 40 ------- 1 3.0 1.0 7 22
+ 0.7028 0 1 ack 40 ------- 1 3.0 1.0 7 22
- 0.7028 0 1 ack 40 ------- 1 3.0 1.0 7 22
- 0.70576 1 0 tcp 1040 ------- 1 1.0 3.0 13 20
r 0.70744 1 0 tcp 1040 ------- 1 1.0 3.0 11 18
+ 0.70744 0 3 tcp 1040 ------- 1 1.0 3.0 11 18
- 0.70744 0 3 tcp 1040 ------- 1 1.0 3.0 11 18
r 0.70912 0 3 tcp 1040 ------- 1 1.0 3.0 9 16
+ 0.70912 3 0 ack 40 ------- 1 3.0 1.0 9 24
- 0.70912 3 0 ack 40 ------- 1 3.0 1.0 9 24
r 0.71112 3 0 ack 40 ------- 1 3.0 1.0 8 23
+ 0.71112 0 1 ack 40 ------- 1 3.0 1.0 8 23
- 0.71112 0 1 ack 40 ------- 1 3.0 1.0 8 23
r 0.71312 0 1 ack 40 ------- 1 3.0 1.0 7 22
+ 0.71312 1 0 tcp 1040 ------- 1 1.0 3.0 15 25
+ 0.71312 1 0 tcp 1040 ------- 1 1.0 3.0 16 26
- 0.71408 1 0 tcp 1040 ------- 1 1.0 3.0 14 21
r 0.71576 1 0 tcp 1040 ------- 1 1.0 3.0 12 19
+ 0.71576 0 3 tcp 1040 ------- 1 1.0 3.0 12 19
- 0.71576 0 3 tcp 1040 ------- 1 1.0 3.0 12 19
r 0.71744 0 3 tcp 1040 ------- 1 1.0 3.0 10 17
+ 0.71744 3 0 ack 40 ------- 1 3.0 1.0 10 27
- 0.71744 3 0 ack 40 ------- 1 3.0 1.0 10 27
r 0.71944 3 0 ack 40 ------- 1 3.0 1.0 9 24
+ 0.71944 0 1 ack 40 ------- 1 3.0 1.0 9 24
- 0.71944 0 1 ack 40 ------- 1 3.0 1.0 9 24
r 0.72144 0 1 ack 40 ------- 1 3.0 1.0 8 23
+ 0.72144 1 0 tcp 1040 ------- 1 1.0 3.0 17 28
+ 0.72144 1 0 tcp 1040 ------- 1 1.0 3.0 18 29
- 0.7224 1 0 tcp 1040 ------- 1 1.0 3.0 15 25
r 0.72408 1 0 tcp 1040 ------- 1 1.0 3.0 13 20
+ 0.72408 0 3 tcp 1040 ------- 1 1.0 3.0 13 20
- 0.72408 0 3 tcp 1040 ------- 1 1.0 3.0 13 20
r 0.72576 0 3 tcp 1040 ------- 1 1.0 3.0 11 18
+ 0.72576 3 0 ack 40 ------- 1 3.0 1.0 11 30
- 0.72576 3 0 ack 40 ------- 1 3.0 1.0 11 30
r 0.72776 3 0 ack 40 ------- 1 3.0 1.0 10 27
+ 0.72776 0 1 ack 40 ------- 1 3.0 1.0 10 27
- 0.72776 0 1 ack 40 ------- 1 3.0 1.0 10 27
r 0.72976 0 1 ack 40 ------- 1 3.0 1.0 9 24
+ 0.72976 1 0 tcp 1040 ------- 1 1.0 3.0 19 31
+ 0.72976 1 0 tcp 1040 ------- 1 1.0 3.0 20 32
- 0.73072 1 0 tcp 1040 ------- 1 1.0 3.0 16 26
r 0.7324 1 0 tcp 1040 ------- 1 1.0 3.0 14 21
+ 0.7324 0 3 tcp 1040 ------- 1 1.0 3.0 14 21
- 0.7324 0 3 tcp 1040 ------- 1 1.0 3.0 14 21
r 0.73408 0 3 tcp 1040 ------- 1 1.0 3.0 12 19
+ 0.73408 3 0 ack 40 ------- 1 3.0 1.0 12 33
- 0.73408 3 0 ack 40 ------- 1 3.0 1.0 12 33
r 0.73608 3 0 ack 40 ------- 1 3.0 1.0 11 30
+ 0.73608 0 1 ack 40 ------- 1 3.0 1.0 11 30
- 0.73608 0 1 ack 40 ------- 1 3.0 1.0 11 30
r 0.73808 0 1 ack 40 ------- 1 3.0 1.0 10 27
+ 0.73808 1 0 tcp 1040 ------- 1 1.0 3.0 21 34
+ 0.73808 1 0 tcp 1040 ------- 1 1.0 3.0 22 35
- 0.73904 1 0 tcp 1040 ------- 1 1.0 3.0 17 28
r 0.74072 1 0 tcp 1040 ------- 1 1.0 3.0 15 25
+ 0.74072 0 3 tcp 1040 ------- 1 1.0 3.0 15 25
- 0.74072 0 3 tcp 1040 ------- 1 1.0 3.0 15 25
r 0.7424 0 3 tcp 1040 ------- 1 1.0 3.0 13 20
+ 0.7424 3 0 ack 40 ------- 1 3.0 1.0 13 36
- 0.7424 3 0 ack 40 ------- 1 3.0 1.0 13 36
r 0.7444 3 0 ack 40 ------- 1 3.0 1.0 12 33
+ 0.7444 0 1 ack 40 ------- 1 3.0 1.0 12 33
- 0.7444 0 1 ack 40 ------- 1 3.0 1.0 12 33
r 0.7464 0 1 ack 40 ------- 1 3.0 1.0 11 30
+ 0.7464 1 0 tcp 1040 ------- 1 1.0 3.0 23 37
+ 0.7464 1 0 tcp 1040 ------- 1 1.0 3.0 24 38
- 0.74736 1 0 tcp 1040 ------- 1 1.0 3.0 18 29
r 0.74904 1 0 tcp 1040 ------- 1 1.0 3.0 16 26
+ 0.74904 0 3 tcp 1040 ------- 1 1.0 3.0 16 26
- 0.74904 0 3 tcp 1040 ------- 1 1.0 3.0 16 26
r 0.75072 0 3 tcp 1040 ------- 1 1.0 3.0 14 21
+ 0.75072 3 0 ack 40 ------- 1 3.0 1.0 14 39
- 0.75072 3 0 ack 40 ------- 1 3.0 1.0 14 39
r 0.75272 3 0 ack 40 ------- 1 3.0 1.0 13 36
+ 0.75272 0 1 ack 40 ------- 1 3.0 1.0 13 36
- 0.75272 0 1 ack 40 ------- 1 3.0 1.0 13 36
r 0.75472 0 1 ack 40 ------- 1 3.0 1.0 12 33
+ 0.75472 1 0 tcp 1040 ------- 1 1.0 3.0 25 40
+ 0.75472 1 0 tcp 1040 ------- 1 1.0 3.0 26 41
- 0.75568 1 0 tcp 1040 ------- 1 1.0 3.0 19 31
r 0.75736 1 0 tcp 1040 ------- 1 1.0 3.0 17 28
+ 0.75736 0 3 tcp 1040 ------- 1 1.0 3.0 17 28
- 0.75736 0 3 tcp 1040 ------- 1 1.0 3.0 17 28
r 0.75904 0 3 tcp 1040 ------- 1 1.0 3.0 15 25
+ 0.75904 3 0 ack 40 ------- 1 3.0 1.0 15 42
- 0.75904 3 0 ack 40 ------- 1 3.0 1.0 15 42
r 0.76104 3 0 ack 40 ------- 1 3.0 1.0 14 39
+ 0.76104 0 1 ack 40 ------- 1 3.0 1.0 14 39
- 0.76104 0 1 ack 40 ------- 1 3.0 1.0 14 39
r 0.76304 0 1 ack 40 ------- 1 3.0 1.0 13 36
+ 0.76304 1 0 tcp 1040 ------- 1 1.0 3.0 27 43
- 0.764 1 0 tcp 1040 ------- 1 1.0 3.0 20 32
r 0.76568 1 0 tcp 1040 ------- 1 1.0 3.0 18 29
+ 0.76568 0 3 tcp 1040 ------- 1 1.0 3.0 18 29
- 0.76568 0 3 tcp 1040 ------- 1 1.0 3.0 18 29
r 0.76736 0 3 tcp 1040 ------- 1 1.0 3.0 16 26
+ 0.76736 3 0 ack 40 ------- 1 3.0 1.0 16 44
- 0.76736 3 0 ack 40 ------- 1 3.0 1.0 16 44
r 0.76936 3 0 ack 40 ------- 1 3.0 1.0 15 42
+ 0.76936 0 1 ack 40 ------- 1 3.0 1.0 15 42
- 0.76936 0 1 ack 40 ------- 1 3.0 1.0 15 42
+ 0.77 1 0 tcp 1040 ------- 1 1.0 3.0 28 45
r 0.77136 0 1 ack 40 ------- 1 3.0 1.0 14 39
- 0.77232 1 0 tcp 1040 ------- 1 1.0 3.0 21 34
r 0.774 1 0 tcp 1040 ------- 1 1.0 3.0 19 31
+ 0.774 0 3 tcp 1040 ------- 1 1.0 3.0 19 31
- 0.774 0 3 tcp 1040 ------- 1 1.0 3.0 19 31
r 0.77568 0 3 tcp 1040 ------- 1 1.0 3.0 17 28
+ 0.77568 3 0 ack 40 ------- 1 3.0 1.0 17 46
- 0.77568 3 0 ack 40 ------- 1 3.0 1.0 17 46
r 0.77768 3 0 ack 40 ------- 1 3.0 1.0 16 44
+ 0.77768 0 1 ack 40 ------- 1 3.0 1.0 16 44
- 0.77768 0 1 ack 40 ------- 1 3.0 1.0 16 44
r 0.77968 0 1 ack 40 ------- 1 3.0 1.0 15 42
+ 0.78 1 0 tcp 1040 ------- 1 1.0 3.0 29 47
- 0.78064 1 0 tcp 1040 ------- 1 1.0 3.0 22 35
r 0.78232 1 0 tcp 1040 ------- 1 1.0 3.0 20 32
+ 0.78232 0 3 tcp 1040 ------- 1 1.0 3.0 20 32
- 0.78232 0 3 tcp 1040 ------- 1 1.0 3.0 20 32
r 0.784 0 3 tcp 1040 ------- 1 1.0 3.0 18 29
+ 0.784 3 0 ack 40 ------- 1 3.0 1.0 18 48
- 0.784 3 0 ack 40 ------- 1 3.0 1.0 18 48
r 0.786 3 0 ack 40 ------- 1 3.0 1.0 17 46
+ 0.786 0 1 ack 40 ------- 1 3.0 1.0 17 46
- 0.786 0 1 ack 40 ------- 1 3.0 1.0 17 46
r 0.788 0 1 ack 40 ------- 1 3.0 1.0 16 44
- 0.78896 1 0 tcp 1040 ------- 1 1.0 3.0 23 37
+ 0.79 1 0 tcp 1040 ------- 1 1.0 3.0 30 49
r 0.79064 1 0 tcp 1040 ------- 1 1.0 3.0 21 34
+ 0.79064 0 3 tcp 1040 ------- 1 1.0 3.0 21 34
- 0.79064 0 3 tcp 1040 ------- 1 1.0 3.0 21 34
r 0.79232 0 3 tcp 1040 ------- 1 1.0 3.0 19 31
+ 0.79232 3 0 ack 40 ------- 1 3.0 1.0 19 50
- 0.79232 3 0 ack 40 ------- 1 3.0 1.0 19 50
r 0.79432 3 0 ack 40 ------- 1 3.0 1.0 18 48
+ 0.79432 0 1 ack 40 ------- 1 3.0 1.0 18 48
- 0.79432 0 1 ack 40 ------- 1 3.0 1.0 18 48
r 0.79632 0 1 ack 40 ------- 1 3.0 1.0 17 46
- 0.79728 1 0 tcp 1040 ------- 1 1.0 3.0 24 38
r 0.79896 1 0 tcp 1040 ------- 1 1.0 3.0 22 35
+ 0.79896 0 3 tcp 1040 ------- 1 1.0 3.0 22 35
- 0.79896 0 3 tcp 1040 ------- 1 1.0 3.0 22 35
+ 0.8 1 0 tcp 1040 ------- 1 1.0 3.0 31 51
r 0.80064 0 3 tcp 1040 ------- 1 1.0 3.0 20 32
+ 0.80064 3 0 ack 40 ------- 1 3.0 1.0 20 52
- 0.80064 3 0 ack 40 ------- 1 3.0 1.0 20 52
r 0.80264 3 0 ack 40 ------- 1 3.0 1.0 19 50
+ 0.80264 0 1 ack 40 ------- 1 3.0 1.0 19 50
- 0.80264 0 1 ack 40 ------- 1 3.0 1.0 19 50
r 0.80464 0 1 ack 40 ------- 1 3.0 1.0 18 48
- 0.8056 1 0 tcp 1040 ------- 1 1.0 3.0 25 40
r 0.80728 1 0 tcp 1040 ------- 1 1.0 3.0 23 37
+ 0.80728 0 3 tcp 1040 ------- 1 1.0 3.0 23 37
- 0.80728 0 3 tcp 1040 ------- 1 1.0 3.0 23 37
r 0.80896 0 3 tcp 1040 ------- 1 1.0 3.0 21 34
+ 0.80896 3 0 ack 40 ------- 1 3.0 1.0 21 53
- 0.80896 3 0 ack 40 ------- 1 3.0 1.0 21 53
+ 0.81 1 0 tcp 1040 ------- 1 1.0 3.0 32 54
r 0.81096 3 0 ack 40 ------- 1 3.0 1.0 20 52
+ 0.81096 0 1 ack 40 ------- 1 3.0 1.0 20 52
- 0.81096 0 1 ack 40 ------- 1 3.0 1.0 20 52
r 0.81296 0 1 ack 40 ------- 1 3.0 1.0 19 50
- 0.81392 1 0 tcp 1040 ------- 1 1.0 3.0 26 41
r 0.8156 1 0 tcp 1040 ------- 1 1.0 3.0 24 38
+ 0.8156 0 3 tcp 1040 ------- 1 1.0 3.0 24 38
- 0.8156 0 3 tcp 1040 ------- 1 1.0 3.0 24 38
r 0.81728 0 3 tcp 1040 ------- 1 1.0 3.0 22 35
+ 0.81728 3 0 ack 40 ------- 1 3.0 1.0 22 55
- 0.81728 3 0 ack 40 ------- 1 3.0 1.0 22 55
r 0.81928 3 0 ack 40 ------- 1 3.0 1.0 21 53
+ 0.81928 0 1 ack 40 ------- 1 3.0 1.0 21 53
- 0.81928 0 1 ack 40 ------- 1 3.0 1.0 21 53
+ 0.82 1 0 tcp 1040 ------- 1 1.0 3.0 33 56
r 0.82128 0 1 ack 40 ------- 1 3.0 1.0 20 52
- 0.82224 1 0 tcp 1040 ------- 1 1.0 3.0 27 43
r 0.82392 1 0 tcp 1040 ------- 1 1.0 3.0 25 40
+ 0.82392 0 3 tcp 1040 ------- 1 1.0 3.0 25 40
- 0.82392 0 3 tcp 1040 ------- 1 1.0 3.0 25 40
r 0.8256 0 3 tcp 1040 ------- 1 1.0 3.0 23 37
+ 0.8256 3 0 ack 40 ------- 1 3.0 1.0 23 57
- 0.8256 3 0 ack 40 ------- 1 3.0 1.0 23 57
r 0.8276 3 0 ack 40 ------- 1 3.0 1.0 22 55
+ 0.8276 0 1 ack 40 ------- 1 3.0 1.0 22 55
- 0.8276 0 1 ack 40 ------- 1 3.0 1.0 22 55
r 0.8296 0 1 ack 40 ------- 1 3.0 1.0 21 53
+ 0.83 1 0 tcp 1040 ------- 1 1.0 3.0 34 58
- 0.83056 1 0 tcp 1040 ------- 1 1.0 3.0 28 45
r 0.83224 1 0 tcp 1040 ------- 1 1.0 3.0 26 41
+ 0.83224 0 3 tcp 1040 ------- 1 1.0 3.0 26 41
- 0.83224 0 3 tcp 1040 ------- 1 1.0 3.0 26 41
r 0.83392 0 3 tcp 1040 ------- 1 1.0 3.0 24 38
+ 0.83392 3 0 ack 40 ------- 1 3.0 1.0 24 59
- 0.83392 3 0 ack 40 ------- 1 3.0 1.0 24 59
r 0.83592 3 0 ack 40 ------- 1 3.0 1.0 23 57
+ 0.83592 0 1 ack 40 ------- 1 3.0 1.0 23 57
- 0.83592 0 1 ack 40 ------- 1 3.0 1.0 23 57
r 0.83792 0 1 ack 40 ------- 1 3.0 1.0 22 55
- 0.83888 1 0 tcp 1040 ------- 1 1.0 3.0 29 47
+ 0.84 1 0 tcp 1040 ------- 1 1.0 3.0 35 60
r 0.84056 1 0 tcp 1040 ------- 1 1.0 3.0 27 43
+ 0.84056 0 3 tcp 1040 ------- 1 1.0 3.0 27 43
- 0.84056 0 3 tcp 1040 ------- 1 1.0 3.0 27 43
r 0.84224 0 3 tcp 1040 ------- 1 1.0 3.0 25 40
+ 0.84224 3 0 ack 40 ------- 1 3.0 1.0 25 61
- 0.84224 3 0 ack 40 ------- 1 3.0 1.0 25 61
r 0.84424 3 0 ack 40 ------- 1 3.0 1.0 24 59
+ 0.84424 0 1 ack 40 ------- 1 3.0 1.0 24 59
- 0.84424 0 1 ack 40 ------- 1 3.0 1.0 24 59
r 0.84624 0 1 ack 40 ------- 1 3.0 1.0 23 57
- 0.8472 1 0 tcp 1040 ------- 1 1.0 3.0 30 49
r 0.84888 1 0 tcp 1040 ------- 1 1.0 3.0 28 45
+ 0.84888 0 3 tcp 1040 ------- 1 1.0 3.0 28 45
- 0.84888 0 3 tcp 1040 ------- 1 1.0 3.0 28 45
+ 0.85 1 0 tcp 1040 ------- 1 1.0 3.0 36 62
r 0.85056 0 3 tcp 1040 ------- 1 1.0 3.0 26 41
+ 0.85056 3 0 ack 40 ------- 1 3.0 1.0 26 63
- 0.85056 3 0 ack 40 ------- 1 3.0 1.0 26 63
r 0.85256 3 0 ack 40 ------- 1 3.0 1.0 25 61
+ 0.85256 0 1 ack 40 ------- 1 3.0 1.0 25 61
- 0.85256 0 1 ack 40 ------- 1 3.0 1.0 25 61
r 0.85456 0 1 ack 40 ------- 1 3.0 1.0 24 59
- 0.85552 1 0 tcp 1040 ------- 1 1.0 3.0 31 51
r 0.8572 1 0 tcp 1040 ------- 1 1.0 3.0 29 47
+ 0.8572 0 3 tcp 1040 ------- 1 1.0 3.0 29 47
- 0.8572 0 3 tcp 1040 ------- 1 1.0 3.0 29 47
r 0.85888 0 3 tcp 1040 ------- 1 1.0 3.0 27 43
+ 0.85888 3 0 ack 40 ------- 1 3.0 1.0 27 64
- 0.85888 3 0 ack 40 ------- 1 3.0 1.0 27 64
+ 0.86 1 0 tcp 1040 ------- 1 1.0 3.0 37 65
r 0.86088 3 0 ack 40 ------- 1 3.0 1.0 26 63
+ 0.86088 0 1 ack 40 ------- 1 3.0 1.0 26 63
- 0.86088 0 1 ack 40 ------- 1 3.0 1.0 26 63
r 0.86288 0 1 ack 40 ------- 1 3.0 1.0 25 61
- 0.86384 1 0 tcp 1040 ------- 1 1.0 3.0 32 54
r 0.86552 1 0 tcp 1040 ------- 1 1.0 3.0 30 49
+ 0.86552 0 3 tcp 1040 ------- 1 1.0 3.0 30 49
- 0.86552 0 3 tcp 1040 ------- 1 1.0 3.0 30 49
r 0.8672 0 3 tcp 1040 ------- 1 1.0 3.0 28 45
+ 0.8672 3 0 ack 40 ------- 1 3.0 1.0 28 66
- 0.8672 3 0 ack 40 ------- 1 3.0 1.0 28 66
r 0.8692 3 0 ack 40 ------- 1 3.0 1.0 27 64
+ 0.8692 0 1 ack 40 ------- 1 3.0 1.0 27 64
- 0.8692 0 1 ack 40 ------- 1 3.0 1.0 27 64
+ 0.87 1 0 tcp 1040 ------- 1 1.0 3.0 38 67
r 0.8712 0 1 ack 40 ------- 1 3.0 1.0 26 63
- 0.87216 1 0 tcp 1040 ------- 1 1.0 3.0 33 56
r 0.87384 1 0 tcp 1040 ------- 1 1.0 3.0 31 51
+ 0.87384 0 3 tcp 1040 ------- 1 1.0 3.0 31 51
- 0.87384 0 3 tcp 1040 ------- 1 1.0 3.0 31 51
r 0.87552 0 3 tcp 1040 ------- 1 1.0 3.0 29 47
+ 0.87552 3 0 ack 40 ------- 1 3.0 1.0 29 68
- 0.87552 3 0 ack 40 ------- 1 3.0 1.0 29 68
r 0.87752 3 0 ack 40 ------- 1 3.0 1.0 28 66
+ 0.87752 0 1 ack 40 ------- 1 3.0 1.0 28 66
- 0.87752 0 1 ack 40 ------- 1 3.0 1.0 28 66
r 0.87952 0 1 ack 40 ------- 1 3.0 1.0 27 64
+ 0.88 1 0 tcp 1040 ------- 1 1.0 3.0 39 69
- 0.88048 1 0 tcp 1040 ------- 1 1.0 3.0 34 58
r 0.88216 1 0 tcp 1040 ------- 1 1.0 3.0 32 54
+ 0.88216 0 3 tcp 1040 ------- 1 1.0 3.0 32 54
- 0.88216 0 3 tcp 1040 ------- 1 1.0 3.0 32 54
r 0.88384 0 3 tcp 1040 ------- 1 1.0 3.0 30 49
+ 0.88384 3 0 ack 40 ------- 1 3.0 1.0 30 70
- 0.88384 3 0 ack 40 ------- 1 3.0 1.0 30 70
r 0.88584 3 0 ack 40 ------- 1 3.0 1.0 29 68
+ 0.88584 0 1 ack 40 ------- 1 3.0 1.0 29 68
- 0.88584 0 1 ack 40 ------- 1 3.0 1.0 29 68
r 0.88784 0 1 ack 40 ------- 1 3.0 1.0 28 66
- 0.8888 1 0 tcp 1040 ------- 1 1.0 3.0 35 60
+ 0.89 1 0 tcp 1040 ------- 1 1.0 3.0 40 71
r 0.89048 1 0 tcp 1040 ------- 1 1.0 3.0 33 56
+ 0.89048 0 3 tcp 1040 ------- 1 1.0 3.0 33 56
- 0.89048 0 3 tcp 1040 ------- 1 1.0 3.0 33 56
r 0.89216 0 3 tcp 1040 ------- 1 1.0 3.0 31 51
+ 0.89216 3 0 ack 40 ------- 1 3.0 1.0 31 72
- 0.89216 3 0 ack 40 ------- 1 3.0 1.0 31 72
r 0.89416 3 0 ack 40 ------- 1 3.0 1.0 30 70
+ 0.89416 0 1 ack 40 ------- 1 3.0 1.0 30 70
- 0.89416 0 1 ack 40 ------- 1 3.0 1.0 30 70
r 0.89616 0 1 ack 40 ------- 1 3.0 1.0 29 68
- 0.89712 1 0 tcp 1040 ------- 1 1.0 3.0 36 62
r 0.8988 1 0 tcp 1040 ------- 1 1.0 3.0 34 58
+ 0.8988 0 3 tcp 1040 ------- 1 1.0 3.0 34 58
- 0.8988 0 3 tcp 1040 ------- 1 1.0 3.0 34 58
+ 0.9 1 0 tcp 1040 ------- 1 1.0 3.0 41 73
r 0.90048 0 3 tcp 1040 ------- 1 1.0 3.0 32 54
+ 0.90048 3 0 ack 40 ------- 1 3.0 1.0 32 74
- 0.90048 3 0 ack 40 ------- 1 3.0 1.0 32 74
r 0.90248 3 0 ack 40 ------- 1 3.0 1.0 31 72
+ 0.90248 0 1 ack 40 ------- 1 3.0 1.0 31 72
- 0.90248 0 1 ack 40 ------- 1 3.0 1.0 31 72
r 0.90448 0 1 ack 40 ------- 1 3.0 1.0 30 70
- 0.90544 1 0 tcp 1040 ------- 1 1.0 3.0 37 65
r 0.90712 1 0 tcp 1040 ------- 1 1.0 3.0 35 60
+ 0.90712 0 3 tcp 1040 ------- 1 1.0 3.0 35 60
- 0.90712 0 3 tcp 1040 ------- 1 1.0 3.0 35 60
r 0.9088 0 3 tcp 1040 ------- 1 1.0 3.0 33 56
+ 0.9088 3 0 ack 40 ------- 1 3.0 1.0 33 75
- 0.9088 3 0 ack 40 ------- 1 3.0 1.0 33 75
+ 0.91 1 0 tcp 1040 ------- 1 1.0 3.0 42 76
r 0.9108 3 0 ack 40 ------- 1 3.0 1.0 32 74
+ 0.9108 0 1 ack 40 ------- 1 3.0 1.0 32 74
- 0.9108 0 1 ack 40 ------- 1 3.0 1.0 32 74
r 0.9128 0 1 ack 40 ------- 1 3.0 1.0 31 72
- 0.91376 1 0 tcp 1040 ------- 1 1.0 3.0 38 67
r 0.91544 1 0 tcp 1040 ------- 1 1.0 3.0 36 62
+ 0.91544 0 3 tcp 1040 ------- 1 1.0 3.0 36 62
- 0.91544 0 3 tcp 1040 ------- 1 1.0 3.0 36 62
r 0.91712 0 3 tcp 1040 ------- 1 1.0 3.0 34 58
+ 0.91712 3 0 ack 40 ------- 1 3.0 1.0 34 77
- 0.91712 3 0 ack 40 ------- 1 3.0 1.0 34 77
r 0.91912 3 0 ack 40 ------- 1 3.0 1.0 33 75
+ 0.91912 0 1 ack 40 ------- 1 3.0 1.0 33 75
- 0.91912 0 1 ack 40 ------- 1 3.0 1.0 33 75
+ 0.92 1 0 tcp 1040 ------- 1 1.0 3.0 43 78
r 0.92112 0 1 ack 40 ------- 1 3.0 1.0 32 74
- 0.92208 1 0 tcp 1040 ------- 1 1.0 3.0 39 69
r 0.92376 1 0 tcp 1040 ------- 1 1.0 3.0 37 65
+ 0.92376 0 3 tcp 1040 ------- 1 1.0 3.0 37 65
- 0.92376 0 3 tcp 1040 ------- 1 1.0 3.0 37 65
r 0.92544 0 3 tcp 1040 ------- 1 1.0 3.0 35 60
+ 0.92544 3 0 ack 40 ------- 1 3.0 1.0 35 79
- 0.92544 3 0 ack 40 ------- 1 3.0 1.0 35 79
r 0.92744 3 0 ack 40 ------- 1 3.0 1.0 34 77
+ 0.92744 0 1 ack 40 ------- 1 3.0 1.0 34 77
- 0.92744 0 1 ack 40 ------- 1 3.0 1.0 34 77
r 0.92944 0 1 ack 40 ------- 1 3.0 1.0 33 75
+ 0.93 1 0 tcp 1040 ------- 1 1.0 3.0 44 80
- 0.9304 1 0 tcp 1040 ------- 1 1.0 3.0 40 71
r 0.93208 1 0 tcp 1040 ------- 1 1.0 3.0 38 67
+ 0.93208 0 3 tcp 1040 ------- 1 1.0 3.0 38 67
- 0.93208 0 3 tcp 1040 ------- 1 1.0 3.0 38 67
r 0.93376 0 3 tcp 1040 ------- 1 1.0 3.0 36 62
+ 0.93376 3 0 ack 40 ------- 1 3.0 1.0 36 81
- 0.93376 3 0 ack 40 ------- 1 3.0 1.0 36 81
r 0.93576 3 0 ack 40 ------- 1 3.0 1.0 35 79
+ 0.93576 0 1 ack 40 ------- 1 3.0 1.0 35 79
- 0.93576 0 1 ack 40 ------- 1 3.0 1.0 35 79
r 0.93776 0 1 ack 40 ------- 1 3.0 1.0 34 77
- 0.93872 1 0 tcp 1040 ------- 1 1.0 3.0 41 73
+ 0.94 1 0 tcp 1040 ------- 1 1.0 3.0 45 82
r 0.9404 1 0 tcp 1040 ------- 1 1.0 3.0 39 69
+ 0.9404 0 3 tcp 1040 ------- 1 1.0 3.0 39 69
- 0.9404 0 3 tcp 1040 ------- 1 1.0 3.0 39 69
r 0.94208 0 3 tcp 1040 ------- 1 1.0 3.0 37 65
+ 0.94208 3 0 ack 40 ------- 1 3.0 1.0 37 83
- 0.94208 3 0 ack 40 ------- 1 3.0 1.0 37 83
r 0.94408 3 0 ack 40 ------- 1 3.0 1.0 36 81
+ 0.94408 0 1 ack 40 ------- 1 3.0 1.0 36 81
- 0.94408 0 1 ack 40 ------- 1 3.0 1.0 36 81
r 0.94608 0 1 ack 40 ------- 1 3.0 1.0 35 79
- 0.94704 1 0 tcp 1040 ------- 1 1.0 3.0 42 76
r 0.94872 1 0 tcp 1040 ------- 1 1.0 3.0 40 71
+ 0.94872 0 3 tcp 1040 ------- 1 1.0 3.0 40 71
- 0.94872 0 3 tcp 1040 ------- 1 1.0 3.0 40 71
+ 0.95 1 0 tcp 1040 ------- 1 1.0 3.0 46 84
r 0.9504 0 3 tcp 1040 ------- 1 1.0 3.0 38 67
+ 0.9504 3 0 ack 40 ------- 1 3.0 1.0 38 85
- 0.9504 3 0 ack 40 ------- 1 3.0 1.0 38 85
r 0.9524 3 0 ack 40 ------- 1 3.0 1.0 37 83
+ 0.9524 0 1 ack 40 ------- 1 3.0 1.0 37 83
- 0.9524 0 1 ack 40 ------- 1 3.0 1.0 37 83
r 0.9544 0 1 ack 40 ------- 1 3.0 1.0 36 81
- 0.95536 1 0 tcp 1040 ------- 1 1.0 3.0 43 78
r 0.95704 1 0 tcp 1040 ------- 1 1.0 3.0 41 73
+ 0.95704 0 3 tcp 1040 ------- 1 1.0 3.0 41 73
- 0.95704 0 3 tcp 1040 ------- 1 1.0 3.0 41 73
r 0.95872 0 3 tcp 1040 ------- 1 1.0 3.0 39 69
+ 0.95872 3 0 ack 40 ------- 1 3.0 1.0 39 86
- 0.95872 3 0 ack 40 ------- 1 3.0 1.0 39 86
+ 0.96 1 0 tcp 1040 ------- 1 1.0 3.0 47 87
r 0.96072 3 0 ack 40 ------- 1 3.0 1.0 38 85
+ 0.96072 0 1 ack 40 ------- 1 3.0 1.0 38 85
- 0.96072 0 1 ack 40 ------- 1 3.0 1.0 38 85
r 0.96272 0 1 ack 40 ------- 1 3.0 1.0 37 83
- 0.96368 1 0 tcp 1040 ------- 1 1.0 3.0 44 80
r 0.96536 1 0 tcp 1040 ------- 1 1.0 3.0 42 76
+ 0.96536 0 3 tcp 1040 ------- 1 1.0 3.0 42 76
- 0.96536 0 3 tcp 1040 ------- 1 1.0 3.0 42 76
r 0.96704 0 3 tcp 1040 ------- 1 1.0 3.0 40 71
+ 0.96704 3 0 ack 40 ------- 1 3.0 1.0 40 88
- 0.96704 3 0 ack 40 ------- 1 3.0 1.0 40 88
r 0.96904 3 0 ack 40 ------- 1 3.0 1.0 39 86
+ 0.96904 0 1 ack 40 ------- 1 3.0 1.0 39 86
- 0.96904 0 1 ack 40 ------- 1 3.0 1.0 39 86
+ 0.97 1 0 tcp 1040 ------- 1 1.0 3.0 48 89
r 0.97104 0 1 ack 40 ------- 1 3.0 1.0 38 85
- 0.972 1 0 tcp 1040 ------- 1 1.0 3.0 45 82
r 0.97368 1 0 tcp 1040 ------- 1 1.0 3.0 43 78
+ 0.97368 0 3 tcp 1040 ------- 1 1.0 3.0 43 78
- 0.97368 0 3 tcp 1040 ------- 1 1.0 3.0 43 78
r 0.97536 0 3 tcp 1040 ------- 1 1.0 3.0 41 73
+ 0.97536 3 0 ack 40 ------- 1 3.0 1.0 41 90
- 0.97536 3 0 ack 40 ------- 1 3.0 1.0 41 90
r 0.97736 3 0 ack 40 ------- 1 3.0 1.0 40 88
+ 0.97736 0 1 ack 40 ------- 1 3.0 1.0 40 88
- 0.97736 0 1 ack 40 ------- 1 3.0 1.0 40 88
r 0.97936 0 1 ack 40 ------- 1 3.0 1.0 39 86
+ 0.98 1 0 tcp 1040 ------- 1 1.0 3.0 49 91
- 0.98032 1 0 tcp 1040 ------- 1 1.0 3.0 46 84
r 0.982 1 0 tcp 1040 ------- 1 1.0 3.0 44 80
+ 0.982 0 3 tcp 1040 ------- 1 1.0 3.0 44 80
- 0.982 0 3 tcp 1040 ------- 1 1.0 3.0 44 80
r 0.98368 0 3 tcp 1040 ------- 1 1.0 3.0 42 76
+ 0.98368 3 0 ack 40 ------- 1 3.0 1.0 42 92
- 0.98368 3 0 ack 40 ------- 1 3.0 1.0 42 92
r 0.98568 3 0 ack 40 ------- 1 3.0 1.0 41 90
+ 0.98568 0 1 ack 40 ------- 1 3.0 1.0 41 90
- 0.98568 0 1 ack 40 ------- 1 3.0 1.0 41 90
r 0.98768 0 1 ack 40 ------- 1 3.0 1.0 40 88
- 0.98864 1 0 tcp 1040 ------- 1 1.0 3.0 47 87
+ 0.99 1 0 tcp 1040 ------- 1 1.0 3.0 50 93
r 0.99032 1 0 tcp 1040 ------- 1 1.0 3.0 45 82
+ 0.99032 0 3 tcp 1040 ------- 1 1.0 3.0 45 82
- 0.99032 0 3 tcp 1040 ------- 1 1.0 3.0 45 82
r 0.992 0 3 tcp 1040 ------- 1 1.0 3.0 43 78
+ 0.992 3 0 ack 40 ------- 1 3.0 1.0 43 94
- 0.992 3 0 ack 40 ------- 1 3.0 1.0 43 94
r 0.994 3 0 ack 40 ------- 1 3.0 1.0 42 92
+ 0.994 0 1 ack 40 ------- 1 3.0 1.0 42 92
- 0.994 0 1 ack 40 ------- 1 3.0 1.0 42 92
r 0.996 0 1 ack 40 ------- 1 3.0 1.0 41 90
- 0.99696 1 0 tcp 1040 ------- 1 1.0 3.0 48 89
r 0.99864 1 0 tcp 1040 ------- 1 1.0 3.0 46 84
+ 0.99864 0 3 tcp 1040 ------- 1 1.0 3.0 46 84
- 0.99864 0 3 tcp 1040 ------- 1 1.0 3.0 46 84
+ 1 1 0 tcp 1040 ------- 1 1.0 3.0 51 95
r 1.00032 0 3 tcp 1040 ------- 1 1.0 3.0 44 80
+ 1.00032 3 0 ack 40 ------- 1 3.0 1.0 44 96
- 1.00032 3 0 ack 40 ------- 1 3.0 1.0 44 96
r 1.00232 3 0 ack 40 ------- 1 3.0 1.0 43 94
+ 1.00232 0 1 ack 40 ------- 1 3.0 1.0 43 94
- 1.00232 0 1 ack 40 ------- 1 3.0 1.0 43 94
r 1.00432 0 1 ack 40 ------- 1 3.0 1.0 42 92
- 1.00528 1 0 tcp 1040 ------- 1 1.0 3.0 49 91
r 1.00696 1 0 tcp 1040 ------- 1 1.0 3.0 47 87
+ 1.00696 0 3 tcp 1040 ------- 1 1.0 3.0 47 87
- 1.00696 0 3 tcp 1040 ------- 1 1.0 3.0 47 87
r 1.00864 0 3 tcp 1040 ------- 1 1.0 3.0 45 82
+ 1.00864 3 0 ack 40 ------- 1 3.0 1.0 45 97
- 1.00864 3 0 ack 40 ------- 1 3.0 1.0 45 97
+ 1.01 1 0 tcp 1040 ------- 1 1.0 3.0 52 98
r 1.01064 3 0 ack 40 ------- 1 3.0 1.0 44 96
+ 1.01064 0 1 ack 40 ------- 1 3.0 1.0 44 96
- 1.01064 0 1 ack 40 ------- 1 3.0 1.0 44 96
r 1.01264 0 1 ack 40 ------- 1 3.0 1.0 43 94
- 1.0136 1 0 tcp 1040 ------- 1 1.0 3.0 50 93
r 1.01528 1 0 tcp 1040 ------- 1 1.0 3.0 48 89
+ 1.01528 0 3 tcp 1040 ------- 1 1.0 3.0 48 89
- 1.01528 0 3 tcp 1040 ------- 1 1.0 3.0 48 89
r 1.01696 0 3 tcp 1040 ------- 1 1.0 3.0 46 84
+ 1.01696 3 0 ack 40 ------- 1 3.0 1.0 46 99
- 1.01696 3 0 ack 40 ------- 1 3.0 1.0 46 99
r 1.01896 3 0 ack 40 ------- 1 3.0 1.0 45 97
+ 1.01896 0 1 ack 40 ------- 1 3.0 1.0 45 97
- 1.01896 0 1 ack 40 ------- 1 3.0 1.0 45 97
+ 1.02 1 0 tcp 1040 ------- 1 1.0 3.0 53 100
r 1.02096 0 1 ack 40 ------- 1 3.0 1.0 44 96
- 1.02192 1 0 tcp 1040 ------- 1 1.0 3.0 51 95
r 1.0236 1 0 tcp 1040 ------- 1 1.0 3.0 49 91
+ 1.0236 0 3 tcp 1040 ------- 1 1.0 3.0 49 91
- 1.0236 0 3 tcp 1040 ------- 1 1.0 3.0 49 91
r 1.02528 0 3 tcp 1040 ------- 1 1.0 3.0 47 87
+ 1.02528 3 0 ack 40 ------- 1 3.0 1.0 47 101
- 1.02528 3 0 ack 40 ------- 1 3.0 1.0 47 101
r 1.02728 3 0 ack 40 ------- 1 3.0 1.0 46 99
+ 1.02728 0 1 ack 40 ------- 1 3.0 1.0 46 99
- 1.02728 0 1 ack 40 ------- 1 3.0 1.0 46 99
r 1.02928 0 1 ack 40 ------- 1 3.0 1.0 45 97
+ 1.03 1 0 tcp 1040 ------- 1 1.0 3.0 54 102
- 1.03024 1 0 tcp 1040 ------- 1 1.0 3.0 52 98
r 1.03192 1 0 tcp 1040 ------- 1 1.0 3.0 50 93
+ 1.03192 0 3 tcp 1040 ------- 1 1.0 3.0 50 93
- 1.03192 0 3 tcp 1040 ------- 1 1.0 3.0 50 93
r 1.0336 0 3 tcp 1040 ------- 1 1.0 3.0 48 89
+ 1.0336 3 0 ack 40 ------- 1 3.0 1.0 48 103
- 1.0336 3 0 ack 40 ------- 1 3.0 1.0 48 103
r 1.0356 3 0 ack 40 ------- 1 3.0 1.0 47 101
+ 1.0356 0 1 ack 40 ------- 1 3.0 1.0 47 101
- 1.0356 0 1 ack 40 ------- 1 3.0 1.0 47 101
r 1.0376 0 1 ack 40 ------- 1 3.0 1.0 46 99
- 1.03856 1 0 tcp 1040 ------- 1 1.0 3.0 53 100
+ 1.04 1 0 tcp 1040 ------- 1 1.0 3.0 55 104
r 1.04024 1 0 tcp 1040 ------- 1 1.0 3.0 51 95
+ 1.04024 0 3 tcp 1040 ------- 1 1.0 3.0 51 95
- 1.04024 0 3 tcp 1040 ------- 1 1.0 3.0 51 95
r 1.04192 0 3 tcp 1040 ------- 1 1.0 3.0 49 91
+ 1.04192 3 0 ack 40 ------- 1 3.0 1.0 49 105
- 1.04192 3 0 ack 40 ------- 1 3.0 1.0 49 105
r 1.04392 3 0 ack 40 ------- 1 3.0 1.0 48 103
+ 1.04392 0 1 ack 40 ------- 1 3.0 1.0 48 103
- 1.04392 0 1 ack 40 ------- 1 3.0 1.0 48 103
r 1.04592 0 1 ack 40 ------- 1 3.0 1.0 47 101
- 1.04688 1 0 tcp 1040 ------- 1 1.0 3.0 54 102
r 1.04856 1 0 tcp 1040 ------- 1 1.0 3.0 52 98
+ 1.04856 0 3 tcp 1040 ------- 1 1.0 3.0 52 98
- 1.04856 0 3 tcp 1040 ------- 1 1.0 3.0 52 98
+ 1.05 1 0 tcp 1040 ------- 1 1.0 3.0 56 106
r 1.05024 0 3 tcp 1040 ------- 1 1.0 3.0 50 93
+ 1.05024 3 0 ack 40 ------- 1 3.0 1.0 50 107
- 1.05024 3 0 ack 40 ------- 1 3.0 1.0 50 107
r 1.05224 3 0 ack 40 ------- 1 3.0 1.0 49 105
+ 1.05224 0 1 ack 40 ------- 1 3.0 1.0 49 105
- 1.05224 0 1 ack 40 ------- 1 3.0 1.0 49 105
r 1.05424 0 1 ack 40 ------- 1 3.0 1.0 48 103
- 1.0552 1 0 tcp 1040 ------- 1 1.0 3.0 55 104
r 1.05688 1 0 tcp 1040 ------- 1 1.0 3.0 53 100
+ 1.05688 0 3 tcp 1040 ------- 1 1.0 3.0 53 100
- 1.05688 0 3 tcp 1040 ------- 1 1.0 3.0 53 100
r 1.05856 0 3 tcp 1040 ------- 1 1.0 3.0 51 95
+ 1.05856 3 0 ack 40 ------- 1 3.0 1.0 51 108
- 1.05856 3 0 ack 40 ------- 1 3.0 1.0 51 108
+ 1.06 1 0 tcp 1040 ------- 1 1.0 3.0 57 109
r 1.06056 3 0 ack 40 ------- 1 3.0 1.0 50 107
+ 1.06056 0 1 ack 40 ------- 1 3.0 1.0 50 107
- 1.06056 0 1 ack 40 ------- 1 3.0 1.0 50 107
r 1.06256 0 1 ack 40 ------- 1 3.0 1.0 49 105
- 1.06352 1 0 tcp 1040 ------- 1 1.0 3.0 56 106
r 1.0652 1 0 tcp 1040 ------- 1 1.0 3.0 54 102
+ 1.0652 0 3 tcp 1040 ------- 1 1.0 3.0 54 102
- 1.0652 0 3 tcp 1040 ------- 1 1.0 3.0 54 102
r 1.06688 0 3 tcp 1040 ------- 1 1.0 3.0 52 98
+ 1.06688 3 0 ack 40 ------- 1 3.0 1.0 52 110
- 1.06688 3 0 ack 40 ------- 1 3.0 1.0 52 110
r 1.06888 3 0 ack 40 ------- 1 3.0 1.0 51 108
+ 1.06888 0 1 ack 40 ------- 1 3.0 1.0 51 108
- 1.06888 0 1 ack 40 ------- 1 3.0 1.0 51 108
+ 1.07 1 0 tcp 1040 ------- 1 1.0 3.0 58 111
r 1.07088 0 1 ack 40 ------- 1 3.0 1.0 50 107
- 1.07184 1 0 tcp 1040 ------- 1 1.0 3.0 57 109
r 1.07352 1 0 tcp 1040 ------- 1 1.0 3.0 55 104
+ 1.07352 0 3 tcp 1040 ------- 1 1.0 3.0 55 104
- 1.07352 0 3 tcp 1040 ------- 1 1.0 3.0 55 104
r 1.0752 0 3 tcp 1040 ------- 1 1.0 3.0 53 100
+ 1.0752 3 0 ack 40 ------- 1 3.0 1.0 53 112
- 1.0752 3 0 ack 40 ------- 1 3.0 1.0 53 112
r 1.0772 3 0 ack 40 ------- 1 3.0 1.0 52 110
+ 1.0772 0 1 ack 40 ------- 1 3.0 1.0 52 110
- 1.0772 0 1 ack 40 ------- 1 3.0 1.0 52 110
r 1.0792 0 1 ack 40 ------- 1 3.0 1.0 51 108
+ 1.08 1 0 tcp 1040 ------- 1 1.0 3.0 59 113
- 1.08016 1 0 tcp 1040 ------- 1 1.0 3.0 58 111